<?xml version="1.0" encoding="UTF-8"?>

<!-- generated on 2026-02-06 21:54:08 by Eclipse SUMO sumo Version 1.24.0
<sumoConfiguration xmlns:xsi="http://www.w3.org/2001/XMLSchema-instance" xsi:noNamespaceSchemaLocation="http://sumo.dlr.de/xsd/sumoConfiguration.xsd">

    <input>
        <net-file value="SUMO_Trinity_Traffic_sim/osm.net.xml.gz"/>
        <route-files value="SUMO_Trinity_Traffic_sim/mg_road.rou.xml,SUMO_Trinity_Traffic_sim/ background.rou.xml"/>
        <additional-files value="SUMO_Trinity_Traffic_sim/osm.poly.xml.gz"/>
    </input>

    <output>
        <tripinfo-output value="SUMO_Trinity_Traffic_sim/tripinfo.xml"/>
    </output>

    <time>
        <begin value="28800.0"/>
        <step-length value="1.0"/>
    </time>

    <processing>
        <ignore-route-errors value="true"/>
        <tls.actuated.jam-threshold value="30"/>
    </processing>

    <routing>
        <device.rerouting.adaptation-steps value="18"/>
        <device.rerouting.adaptation-interval value="10"/>
    </routing>

    <report>
        <verbose value="true"/>
        <no-warnings value="true"/>
        <duration-log.statistics value="true"/>
        <no-step-log value="true"/>
    </report>

    <traci_server>
        <remote-port value="52104"/>
    </traci_server>

    <random_number>
        <seed value="6"/>
    </random_number>

    <gui_only>
        <gui-settings-file value="SUMO_Trinity_Traffic_sim/osm.view.xml"/>
        <quit-on-end value="true"/>
    </gui_only>

</sumoConfiguration>
-->

<tripinfos xmlns:xsi="http://www.w3.org/2001/XMLSchema-instance" xsi:noNamespaceSchemaLocation="http://sumo.dlr.de/xsd/tripinfo_file.xsd">
    <tripinfo id="from_south_right_turn_morning_peak.0" depart="28803.00" departLane="638541493#1_0" departPos="2.30" departSpeed="0.00" departDelay="3.00" arrival="28825.00" arrivalLane="638541497#1_1" arrivalPos="50.87" arrivalSpeed="24.70" duration="22.00" routeLength="162.04" waitingTime="2.00" waitingCount="1" stopTime="0.00" timeLoss="10.11" rerouteNo="1" devices="tripinfo_from_south_right_turn_morning_peak.0 routing_from_south_right_turn_morning_peak.0" vType="motorcycle" speedFactor="1.09" vaporized=""/>
    <tripinfo id="from_south_right_turn_morning_peak.1" depart="28811.00" departLane="638541493#1_0" departPos="5.10" departSpeed="0.00" departDelay="3.24" arrival="28831.00" arrivalLane="638541497#1_1" arrivalPos="50.87" arrivalSpeed="19.08" duration="20.00" routeLength="159.24" waitingTime="0.00" waitingCount="0" stopTime="0.00" timeLoss="7.88" rerouteNo="1" devices="tripinfo_from_south_right_turn_morning_peak.1 routing_from_south_right_turn_morning_peak.1" vType="car" speedFactor="1.02" vaporized=""/>
    <tripinfo id="from_east_right_turn_morning_peak.0" depart="28805.00" departLane="1354145734#1_0" departPos="5.10" departSpeed="0.00" departDelay="5.00" arrival="28833.00" arrivalLane="328349209#9_1" arrivalPos="20.69" arrivalSpeed="29.08" duration="28.00" routeLength="363.40" waitingTime="0.00" waitingCount="0" stopTime="0.00" timeLoss="15.26" rerouteNo="1" devices="tripinfo_from_east_right_turn_morning_peak.0 routing_from_east_right_turn_morning_peak.0" vType="car" speedFactor="1.13" vaporized=""/>
    <tripinfo id="from_south_straight_morning_peak.0" depart="28800.00" departLane="638541493#1_0" departPos="2.30" departSpeed="0.00" departDelay="0.00" arrival="28834.00" arrivalLane="328349209#9_0" arrivalPos="20.69" arrivalSpeed="26.17" duration="34.00" routeLength="345.44" waitingTime="6.00" waitingCount="1" stopTime="0.00" timeLoss="14.73" rerouteNo="1" devices="tripinfo_from_south_straight_morning_peak.0 routing_from_south_straight_morning_peak.0" vType="motorcycle" speedFactor="1.04" vaporized=""/>
    <tripinfo id="0" depart="28800.00" departLane="169709329#5_0" departPos="5.10" departSpeed="0.00" departDelay="0.00" arrival="28836.00" arrivalLane="-1103062099#1_0" arrivalPos="7.64" arrivalSpeed="9.88" duration="36.00" routeLength="124.30" waitingTime="0.00" waitingCount="0" stopTime="0.00" timeLoss="9.81" rerouteNo="1" devices="tripinfo_0 routing_0" vType="DEFAULT_VEHTYPE" speedFactor="1.02" vaporized=""/>
    <tripinfo id="from_south_right_turn_morning_peak.2" depart="28818.00" departLane="638541493#1_0" departPos="2.30" departSpeed="0.00" departDelay="2.48" arrival="28836.00" arrivalLane="638541497#1_1" arrivalPos="50.87" arrivalSpeed="24.50" duration="18.00" routeLength="162.04" waitingTime="0.00" waitingCount="0" stopTime="0.00" timeLoss="4.90" rerouteNo="1" devices="tripinfo_from_south_right_turn_morning_peak.2 routing_from_south_right_turn_morning_peak.2" vType="motorcycle" speedFactor="1.00" vaporized=""/>
    <tripinfo id="emergency_ambulance_south_morning_peak.0" depart="28804.00" departLane="638541493#1_0" departPos="5.10" departSpeed="0.00" departDelay="4.00" arrival="28841.00" arrivalLane="328349209#9_0" arrivalPos="20.69" arrivalSpeed="27.33" duration="37.00" routeLength="342.64" waitingTime="1.00" waitingCount="1" stopTime="0.00" timeLoss="17.94" rerouteNo="1" devices="tripinfo_emergency_ambulance_south_morning_peak.0 routing_emergency_ambulance_south_morning_peak.0" vType="ambulance" speedFactor="1.00" vaporized=""/>
    <tripinfo id="from_south_right_turn_morning_peak.3" depart="28826.00" departLane="638541493#1_0" departPos="2.30" departSpeed="0.00" departDelay="2.73" arrival="28844.00" arrivalLane="638541497#1_1" arrivalPos="50.87" arrivalSpeed="24.98" duration="18.00" routeLength="162.04" waitingTime="0.00" waitingCount="0" stopTime="0.00" timeLoss="4.33" rerouteNo="1" devices="tripinfo_from_south_right_turn_morning_peak.3 routing_from_south_right_turn_morning_peak.3" vType="motorcycle" speedFactor="0.99" vaporized=""/>
    <tripinfo id="3" depart="28811.00" departLane="491106117#3_0" departPos="5.10" departSpeed="0.00" departDelay="0.20" arrival="28848.00" arrivalLane="-132907566#1_0" arrivalPos="45.08" arrivalSpeed="13.35" duration="37.00" routeLength="342.86" waitingTime="0.00" waitingCount="0" stopTime="0.00" timeLoss="11.51" rerouteNo="1" devices="tripinfo_3 routing_3" vType="DEFAULT_VEHTYPE" speedFactor="1.08" vaporized=""/>
    <tripinfo id="from_south_right_turn_morning_peak.4" depart="28834.00" departLane="638541493#1_0" departPos="2.30" departSpeed="0.00" departDelay="2.97" arrival="28853.00" arrivalLane="638541497#1_1" arrivalPos="50.87" arrivalSpeed="25.63" duration="19.00" routeLength="162.04" waitingTime="0.00" waitingCount="0" stopTime="0.00" timeLoss="4.63" rerouteNo="1" devices="tripinfo_from_south_right_turn_morning_peak.4 routing_from_south_right_turn_morning_peak.4" vType="motorcycle" speedFactor="0.94" vaporized=""/>
    <tripinfo id="from_south_right_turn_morning_peak.5" depart="28840.00" departLane="638541493#1_0" departPos="2.30" departSpeed="0.00" departDelay="1.21" arrival="28857.00" arrivalLane="638541497#1_1" arrivalPos="50.87" arrivalSpeed="22.85" duration="17.00" routeLength="162.04" waitingTime="0.00" waitingCount="0" stopTime="0.00" timeLoss="4.81" rerouteNo="1" devices="tripinfo_from_south_right_turn_morning_peak.5 routing_from_south_right_turn_morning_peak.5" vType="motorcycle" speedFactor="1.06" vaporized=""/>
    <tripinfo id="from_east_right_turn_morning_peak.1" depart="28827.00" departLane="1354145734#1_0" departPos="5.10" departSpeed="0.00" departDelay="20.63" arrival="28858.00" arrivalLane="328349209#9_1" arrivalPos="20.69" arrivalSpeed="22.21" duration="31.00" routeLength="363.40" waitingTime="0.00" waitingCount="0" stopTime="0.00" timeLoss="12.68" rerouteNo="1" devices="tripinfo_from_east_right_turn_morning_peak.1 routing_from_east_right_turn_morning_peak.1" vType="car" speedFactor="0.82" vaporized=""/>
    <tripinfo id="from_south_left_turn_morning_peak.0" depart="28801.00" departLane="638541493#1_0" departPos="5.10" departSpeed="0.00" departDelay="1.00" arrival="28863.00" arrivalLane="638541495#2_0" arrivalPos="30.24" arrivalSpeed="8.86" duration="62.00" routeLength="501.00" waitingTime="0.00" waitingCount="0" stopTime="0.00" timeLoss="7.75" rerouteNo="1" devices="tripinfo_from_south_left_turn_morning_peak.0 routing_from_south_left_turn_morning_peak.0" vType="auto" speedFactor="1.06" vaporized=""/>
    <tripinfo id="from_south_straight_morning_peak.1" depart="28835.00" departLane="638541493#1_0" departPos="5.10" departSpeed="0.00" departDelay="0.05" arrival="28866.00" arrivalLane="328349209#9_0" arrivalPos="20.69" arrivalSpeed="27.48" duration="31.00" routeLength="342.64" waitingTime="1.00" waitingCount="1" stopTime="0.00" timeLoss="12.53" rerouteNo="1" devices="tripinfo_from_south_straight_morning_peak.1 routing_from_south_straight_morning_peak.1" vType="auto" speedFactor="1.05" vaporized=""/>
    <tripinfo id="from_east_right_turn_morning_peak.2" depart="28840.00" departLane="1354145734#1_0" departPos="5.10" departSpeed="0.00" departDelay="27.26" arrival="28869.00" arrivalLane="328349209#9_1" arrivalPos="20.69" arrivalSpeed="27.89" duration="29.00" routeLength="363.40" waitingTime="0.00" waitingCount="0" stopTime="0.00" timeLoss="15.04" rerouteNo="1" devices="tripinfo_from_east_right_turn_morning_peak.2 routing_from_east_right_turn_morning_peak.2" vType="auto" speedFactor="1.03" vaporized=""/>
    <tripinfo id="from_south_left_turn_morning_peak.1" depart="28808.00" departLane="638541493#1_0" departPos="5.10" departSpeed="0.00" departDelay="0.24" arrival="28872.00" arrivalLane="638541495#2_0" arrivalPos="30.24" arrivalSpeed="7.91" duration="64.00" routeLength="501.00" waitingTime="0.00" waitingCount="0" stopTime="0.00" timeLoss="8.17" rerouteNo="1" devices="tripinfo_from_south_left_turn_morning_peak.1 routing_from_south_left_turn_morning_peak.1" vType="auto" speedFactor="1.03" vaporized=""/>
    <tripinfo id="from_east_left_turn_morning_peak.0" depart="28802.00" departLane="1354145734#1_0" departPos="5.10" departSpeed="0.00" departDelay="2.00" arrival="28876.00" arrivalLane="1148421491#1_0" arrivalPos="44.65" arrivalSpeed="6.92" duration="74.00" routeLength="287.98" waitingTime="41.00" waitingCount="1" stopTime="0.00" timeLoss="54.44" rerouteNo="1" devices="tripinfo_from_east_left_turn_morning_peak.0 routing_from_east_left_turn_morning_peak.0" vType="car" speedFactor="0.90" vaporized=""/>
    <tripinfo id="7" depart="28826.00" departLane="169711262#3_0" departPos="5.10" departSpeed="0.00" departDelay="0.80" arrival="28876.00" arrivalLane="132907562#1_0" arrivalPos="14.25" arrivalSpeed="13.95" duration="50.00" routeLength="573.45" waitingTime="0.00" waitingCount="0" stopTime="0.00" timeLoss="12.08" rerouteNo="1" devices="tripinfo_7 routing_7" vType="DEFAULT_VEHTYPE" speedFactor="1.15" vaporized=""/>
    <tripinfo id="from_west_left_turn_morning_peak.0" depart="28801.00" departLane="263812623#1_0" departPos="2.30" departSpeed="0.00" departDelay="1.00" arrival="28878.00" arrivalLane="328349209#9_0" arrivalPos="20.69" arrivalSpeed="28.45" duration="77.00" routeLength="677.53" waitingTime="24.00" waitingCount="1" stopTime="0.00" timeLoss="39.03" rerouteNo="1" devices="tripinfo_from_west_left_turn_morning_peak.0 routing_from_west_left_turn_morning_peak.0" vType="motorcycle" speedFactor="1.04" vaporized=""/>
    <tripinfo id="emergency_fire_truck_east_morning_peak.0" depart="28811.00" departLane="1354145734#1_0" departPos="9.10" departSpeed="0.00" departDelay="11.00" arrival="28878.00" arrivalLane="1148421491#1_0" arrivalPos="44.65" arrivalSpeed="7.21" duration="67.00" routeLength="283.98" waitingTime="31.00" waitingCount="1" stopTime="0.00" timeLoss="49.35" rerouteNo="1" devices="tripinfo_emergency_fire_truck_east_morning_peak.0 routing_emergency_fire_truck_east_morning_peak.0" vType="fire_truck" speedFactor="1.00" vaporized=""/>
    <tripinfo id="10" depart="28836.00" departLane="36257667#9_0" departPos="5.10" departSpeed="0.00" departDelay="0.00" arrival="28879.00" arrivalLane="213087089_0" arrivalPos="91.98" arrivalSpeed="13.95" duration="43.00" routeLength="437.32" waitingTime="0.00" waitingCount="0" stopTime="0.00" timeLoss="11.36" rerouteNo="1" devices="tripinfo_10 routing_10" vType="DEFAULT_VEHTYPE" speedFactor="1.07" vaporized=""/>
    <tripinfo id="from_south_left_turn_morning_peak.3" depart="28824.00" departLane="638541493#1_0" departPos="5.10" departSpeed="0.00" departDelay="0.73" arrival="28882.00" arrivalLane="638541495#2_1" arrivalPos="30.24" arrivalSpeed="8.85" duration="58.00" routeLength="501.00" waitingTime="0.00" waitingCount="0" stopTime="0.00" timeLoss="8.48" rerouteNo="1" devices="tripinfo_from_south_left_turn_morning_peak.3 routing_from_south_left_turn_morning_peak.3" vType="auto" speedFactor="1.15" vaporized=""/>
    <tripinfo id="from_south_right_turn_morning_peak.6" depart="28849.00" departLane="638541493#1_0" departPos="2.30" departSpeed="0.00" departDelay="2.45" arrival="28883.00" arrivalLane="638541497#1_1" arrivalPos="50.87" arrivalSpeed="23.83" duration="34.00" routeLength="162.04" waitingTime="16.00" waitingCount="1" stopTime="0.00" timeLoss="22.37" rerouteNo="1" devices="tripinfo_from_south_right_turn_morning_peak.6 routing_from_south_right_turn_morning_peak.6" vType="motorcycle" speedFactor="1.11" vaporized=""/>
    <tripinfo id="emergency_fire_truck_west_morning_peak.0" depart="28805.00" departLane="263812623#1_0" departPos="9.10" departSpeed="0.00" departDelay="5.00" arrival="28884.00" arrivalLane="328349209#9_0" arrivalPos="20.69" arrivalSpeed="26.66" duration="79.00" routeLength="670.73" waitingTime="21.00" waitingCount="1" stopTime="0.00" timeLoss="39.93" rerouteNo="1" devices="tripinfo_emergency_fire_truck_west_morning_peak.0 routing_emergency_fire_truck_west_morning_peak.0" vType="fire_truck" speedFactor="1.00" vaporized=""/>
    <tripinfo id="from_west_right_turn_morning_peak.0" depart="28802.00" departLane="263812623#1_0" departPos="2.30" departSpeed="0.00" departDelay="2.00" arrival="28885.00" arrivalLane="1148421491#1_0" arrivalPos="44.65" arrivalSpeed="7.06" duration="83.00" routeLength="501.63" waitingTime="34.00" waitingCount="2" stopTime="0.00" timeLoss="47.75" rerouteNo="1" devices="tripinfo_from_west_right_turn_morning_peak.0 routing_from_west_right_turn_morning_peak.0" vType="motorcycle" speedFactor="1.09" vaporized=""/>
    <tripinfo id="from_west_straight_morning_peak.0" depart="28800.00" departLane="263812623#1_0" departPos="2.30" departSpeed="0.00" departDelay="0.00" arrival="28886.00" arrivalLane="638541497#16_0" arrivalPos="109.58" arrivalSpeed="28.78" duration="86.00" routeLength="1048.79" waitingTime="26.00" waitingCount="1" stopTime="0.00" timeLoss="35.17" rerouteNo="1" devices="tripinfo_from_west_straight_morning_peak.0 routing_from_west_straight_morning_peak.0" vType="motorcycle" speedFactor="1.04" vaporized=""/>
    <tripinfo id="from_south_right_turn_morning_peak.7" depart="28858.00" departLane="638541493#1_0" departPos="5.10" departSpeed="0.00" departDelay="3.69" arrival="28887.00" arrivalLane="638541497#1_1" arrivalPos="50.87" arrivalSpeed="17.85" duration="29.00" routeLength="159.24" waitingTime="8.00" waitingCount="1" stopTime="0.00" timeLoss="16.77" rerouteNo="1" devices="tripinfo_from_south_right_turn_morning_peak.7 routing_from_south_right_turn_morning_peak.7" vType="auto" speedFactor="1.02" vaporized=""/>
    <tripinfo id="from_south_left_turn_morning_peak.2" depart="28816.00" departLane="638541493#1_0" departPos="5.10" departSpeed="0.00" departDelay="0.48" arrival="28888.00" arrivalLane="638541495#2_0" arrivalPos="30.24" arrivalSpeed="6.83" duration="72.00" routeLength="501.00" waitingTime="0.00" waitingCount="0" stopTime="0.00" timeLoss="9.36" rerouteNo="1" devices="tripinfo_from_south_left_turn_morning_peak.2 routing_from_south_left_turn_morning_peak.2" vType="auto" speedFactor="0.90" vaporized=""/>
    <tripinfo id="from_south_right_turn_morning_peak.8" depart="28865.00" departLane="638541493#1_0" departPos="2.30" departSpeed="0.00" departDelay="2.94" arrival="28889.00" arrivalLane="638541497#1_1" arrivalPos="50.87" arrivalSpeed="22.66" duration="24.00" routeLength="162.04" waitingTime="0.00" waitingCount="0" stopTime="0.00" timeLoss="9.31" rerouteNo="1" devices="tripinfo_from_south_right_turn_morning_peak.8 routing_from_south_right_turn_morning_peak.8" vType="motorcycle" speedFactor="0.90" vaporized=""/>
    <tripinfo id="from_west_straight_morning_peak.1" depart="28807.00" departLane="263812623#1_0" departPos="2.30" departSpeed="0.00" departDelay="5.81" arrival="28890.00" arrivalLane="638541497#16_1" arrivalPos="109.58" arrivalSpeed="29.65" duration="83.00" routeLength="1048.79" waitingTime="20.00" waitingCount="1" stopTime="0.00" timeLoss="35.14" rerouteNo="1" devices="tripinfo_from_west_straight_morning_peak.1 routing_from_west_straight_morning_peak.1" vType="motorcycle" speedFactor="1.11" vaporized=""/>
    <tripinfo id="emergency_ambulance_west_morning_peak.0" depart="28804.00" departLane="263812623#1_0" departPos="5.10" departSpeed="0.00" departDelay="4.00" arrival="28891.00" arrivalLane="638541497#16_0" arrivalPos="109.58" arrivalSpeed="27.32" duration="87.00" routeLength="1045.99" waitingTime="20.00" waitingCount="1" stopTime="0.00" timeLoss="34.52" rerouteNo="1" devices="tripinfo_emergency_ambulance_west_morning_peak.0 routing_emergency_ambulance_west_morning_peak.0" vType="ambulance" speedFactor="1.00" vaporized=""/>
    <tripinfo id="from_west_straight_morning_peak.2" depart="28808.00" departLane="263812623#1_0" departPos="2.30" departSpeed="0.00" departDelay="5.62" arrival="28891.00" arrivalLane="638541497#16_1" arrivalPos="109.58" arrivalSpeed="30.93" duration="83.00" routeLength="1048.79" waitingTime="19.00" waitingCount="1" stopTime="0.00" timeLoss="35.96" rerouteNo="1" devices="tripinfo_from_west_straight_morning_peak.2 routing_from_west_straight_morning_peak.2" vType="motorcycle" speedFactor="1.13" vaporized=""/>
    <tripinfo id="from_west_straight_morning_peak.4" depart="28813.00" departLane="263812623#1_0" departPos="2.30" departSpeed="0.00" departDelay="8.23" arrival="28893.00" arrivalLane="638541497#16_1" arrivalPos="109.58" arrivalSpeed="29.63" duration="80.00" routeLength="1048.79" waitingTime="17.00" waitingCount="1" stopTime="0.00" timeLoss="31.88" rerouteNo="1" devices="tripinfo_from_west_straight_morning_peak.4 routing_from_west_straight_morning_peak.4" vType="motorcycle" speedFactor="1.11" vaporized=""/>
    <tripinfo id="from_south_right_turn_morning_peak.9" depart="28873.00" departLane="638541493#1_0" departPos="5.10" departSpeed="0.00" departDelay="3.18" arrival="28893.00" arrivalLane="638541497#1_1" arrivalPos="50.87" arrivalSpeed="19.83" duration="20.00" routeLength="159.24" waitingTime="0.00" waitingCount="0" stopTime="0.00" timeLoss="8.79" rerouteNo="1" devices="tripinfo_from_south_right_turn_morning_peak.9 routing_from_south_right_turn_morning_peak.9" vType="car" speedFactor="1.12" vaporized=""/>
    <tripinfo id="from_east_right_turn_morning_peak.3" depart="28857.00" departLane="1354145734#1_0" departPos="2.30" departSpeed="0.00" departDelay="37.89" arrival="28895.00" arrivalLane="328349209#9_1" arrivalPos="20.69" arrivalSpeed="28.35" duration="38.00" routeLength="366.20" waitingTime="3.00" waitingCount="1" stopTime="0.00" timeLoss="23.46" rerouteNo="1" devices="tripinfo_from_east_right_turn_morning_peak.3 routing_from_east_right_turn_morning_peak.3" vType="motorcycle" speedFactor="1.03" vaporized=""/>
    <tripinfo id="2" depart="28808.00" departLane="26284129#7_0" departPos="5.10" departSpeed="0.00" departDelay="0.80" arrival="28897.00" arrivalLane="213042766#5_0" arrivalPos="50.03" arrivalSpeed="12.82" duration="89.00" routeLength="1012.11" waitingTime="2.00" waitingCount="1" stopTime="0.00" timeLoss="20.69" rerouteNo="1" devices="tripinfo_2 routing_2" vType="DEFAULT_VEHTYPE" speedFactor="0.93" vaporized=""/>
    <tripinfo id="from_south_right_turn_morning_peak.10" depart="28879.00" departLane="638541493#1_0" departPos="2.30" departSpeed="0.00" departDelay="1.42" arrival="28897.00" arrivalLane="638541497#1_1" arrivalPos="50.87" arrivalSpeed="25.20" duration="18.00" routeLength="162.04" waitingTime="0.00" waitingCount="0" stopTime="0.00" timeLoss="4.76" rerouteNo="1" devices="tripinfo_from_south_right_turn_morning_peak.10 routing_from_south_right_turn_morning_peak.10" vType="motorcycle" speedFactor="1.03" vaporized=""/>
    <tripinfo id="from_south_left_turn_morning_peak.4" depart="28832.00" departLane="638541493#1_0" departPos="5.10" departSpeed="0.00" departDelay="0.97" arrival="28899.00" arrivalLane="638541495#2_0" arrivalPos="30.24" arrivalSpeed="7.28" duration="67.00" routeLength="501.00" waitingTime="0.00" waitingCount="0" stopTime="0.00" timeLoss="10.36" rerouteNo="1" devices="tripinfo_from_south_left_turn_morning_peak.4 routing_from_south_left_turn_morning_peak.4" vType="auto" speedFactor="1.00" vaporized=""/>
    <tripinfo id="from_south_straight_morning_peak.2" depart="28870.00" departLane="638541493#1_0" departPos="2.30" departSpeed="0.00" departDelay="0.10" arrival="28900.00" arrivalLane="328349209#9_0" arrivalPos="20.69" arrivalSpeed="29.08" duration="30.00" routeLength="345.44" waitingTime="0.00" waitingCount="0" stopTime="0.00" timeLoss="10.96" rerouteNo="1" devices="tripinfo_from_south_straight_morning_peak.2 routing_from_south_straight_morning_peak.2" vType="motorcycle" speedFactor="1.05" vaporized=""/>
    <tripinfo id="from_west_straight_morning_peak.3" depart="28811.00" departLane="263812623#1_0" departPos="12.10" departSpeed="0.00" departDelay="7.42" arrival="28902.00" arrivalLane="638541497#16_0" arrivalPos="109.58" arrivalSpeed="27.74" duration="91.00" routeLength="1038.99" waitingTime="16.00" waitingCount="1" stopTime="0.00" timeLoss="39.05" rerouteNo="1" devices="tripinfo_from_west_straight_morning_peak.3 routing_from_west_straight_morning_peak.3" vType="bus" speedFactor="1.00" vaporized=""/>
    <tripinfo id="11" depart="28841.00" departLane="-484510040#17_0" departPos="5.10" departSpeed="0.00" departDelay="1.40" arrival="28904.00" arrivalLane="-169711276#0_0" arrivalPos="9.15" arrivalSpeed="11.23" duration="63.00" routeLength="610.46" waitingTime="0.00" waitingCount="0" stopTime="0.00" timeLoss="18.54" rerouteNo="1" devices="tripinfo_11 routing_11" vType="DEFAULT_VEHTYPE" speedFactor="0.84" vaporized=""/>
    <tripinfo id="from_south_right_turn_morning_peak.11" depart="28888.00" departLane="638541493#1_0" departPos="2.30" departSpeed="0.00" departDelay="2.66" arrival="28905.00" arrivalLane="638541497#1_1" arrivalPos="50.87" arrivalSpeed="28.31" duration="17.00" routeLength="162.04" waitingTime="0.00" waitingCount="0" stopTime="0.00" timeLoss="3.95" rerouteNo="1" devices="tripinfo_from_south_right_turn_morning_peak.11 routing_from_south_right_turn_morning_peak.11" vType="motorcycle" speedFactor="1.03" vaporized=""/>
    <tripinfo id="1" depart="28804.00" departLane="-26284183#2_0" departPos="5.10" departSpeed="0.00" departDelay="0.40" arrival="28909.00" arrivalLane="-26284129#7_0" arrivalPos="40.68" arrivalSpeed="17.95" duration="105.00" routeLength="563.24" waitingTime="54.00" waitingCount="1" stopTime="0.00" timeLoss="75.31" rerouteNo="1" devices="tripinfo_1 routing_1" vType="DEFAULT_VEHTYPE" speedFactor="1.06" vaporized=""/>
    <tripinfo id="30" depart="28908.00" departLane="-37110889#1_0" departPos="5.10" departSpeed="0.00" departDelay="0.00" arrival="28911.00" arrivalLane="-37110889#1_0" arrivalPos="11.84" arrivalSpeed="5.74" duration="3.00" routeLength="6.74" waitingTime="0.00" waitingCount="0" stopTime="0.00" timeLoss="2.52" rerouteNo="1" devices="tripinfo_30 routing_30" vType="DEFAULT_VEHTYPE" speedFactor="1.01" vaporized=""/>
    <tripinfo id="from_south_right_turn_morning_peak.12" depart="28896.00" departLane="638541493#1_0" departPos="2.30" departSpeed="0.00" departDelay="2.90" arrival="28914.00" arrivalLane="638541497#1_1" arrivalPos="50.87" arrivalSpeed="21.85" duration="18.00" routeLength="162.04" waitingTime="0.00" waitingCount="0" stopTime="0.00" timeLoss="5.62" rerouteNo="1" devices="tripinfo_from_south_right_turn_morning_peak.12 routing_from_south_right_turn_morning_peak.12" vType="motorcycle" speedFactor="1.06" vaporized=""/>
    <tripinfo id="from_south_left_turn_morning_peak.5" depart="28839.00" departLane="638541493#1_0" departPos="2.30" departSpeed="0.00" departDelay="0.21" arrival="28915.00" arrivalLane="638541495#2_0" arrivalPos="30.24" arrivalSpeed="5.77" duration="76.00" routeLength="503.80" waitingTime="0.00" waitingCount="0" stopTime="0.00" timeLoss="17.26" rerouteNo="1" devices="tripinfo_from_south_left_turn_morning_peak.5 routing_from_south_left_turn_morning_peak.5" vType="motorcycle" speedFactor="0.96" vaporized=""/>
    <tripinfo id="from_east_straight_morning_peak.1" depart="28815.00" departLane="1354145734#1_0" departPos="5.10" departSpeed="0.00" departDelay="13.64" arrival="28917.00" arrivalLane="638541495#1_1" arrivalPos="26.02" arrivalSpeed="8.44" duration="102.00" routeLength="627.14" waitingTime="28.00" waitingCount="1" stopTime="0.00" timeLoss="46.61" rerouteNo="1" devices="tripinfo_from_east_straight_morning_peak.1 routing_from_east_straight_morning_peak.1" vType="car" speedFactor="1.08" vaporized=""/>
    <tripinfo id="12" depart="28844.00" departLane="638541497#8_0" departPos="5.10" departSpeed="0.00" departDelay="0.80" arrival="28917.00" arrivalLane="-553250634#1_0" arrivalPos="19.11" arrivalSpeed="9.61" duration="73.00" routeLength="630.48" waitingTime="24.00" waitingCount="1" stopTime="0.00" timeLoss="47.58" rerouteNo="1" devices="tripinfo_12 routing_12" vType="DEFAULT_VEHTYPE" speedFactor="1.08" vaporized=""/>
    <tripinfo id="emergency_ambulance_east_morning_peak.0" depart="28808.00" departLane="1354145734#1_0" departPos="5.10" departSpeed="0.00" departDelay="8.00" arrival="28918.00" arrivalLane="638541495#1_0" arrivalPos="26.02" arrivalSpeed="7.54" duration="110.00" routeLength="627.14" waitingTime="33.00" waitingCount="1" stopTime="0.00" timeLoss="49.41" rerouteNo="1" devices="tripinfo_emergency_ambulance_east_morning_peak.0 routing_emergency_ambulance_east_morning_peak.0" vType="ambulance" speedFactor="1.00" vaporized=""/>
    <tripinfo id="from_south_left_turn_morning_peak.6" depart="28847.00" departLane="638541493#1_0" departPos="2.30" departSpeed="0.00" departDelay="0.45" arrival="28918.00" arrivalLane="638541495#2_0" arrivalPos="30.24" arrivalSpeed="8.08" duration="71.00" routeLength="503.80" waitingTime="0.00" waitingCount="0" stopTime="0.00" timeLoss="14.19" rerouteNo="1" devices="tripinfo_from_south_left_turn_morning_peak.6 routing_from_south_left_turn_morning_peak.6" vType="motorcycle" speedFactor="1.01" vaporized=""/>
    <tripinfo id="from_south_right_turn_morning_peak.13" depart="28903.00" departLane="638541493#1_0" departPos="5.10" departSpeed="0.00" departDelay="2.15" arrival="28922.00" arrivalLane="638541497#1_1" arrivalPos="50.87" arrivalSpeed="19.48" duration="19.00" routeLength="159.24" waitingTime="0.00" waitingCount="0" stopTime="0.00" timeLoss="4.33" rerouteNo="1" devices="tripinfo_from_south_right_turn_morning_peak.13 routing_from_south_right_turn_morning_peak.13" vType="car" speedFactor="0.87" vaporized=""/>
    <tripinfo id="from_east_straight_morning_peak.0" depart="28800.00" departLane="1354145734#1_0" departPos="2.30" departSpeed="0.00" departDelay="0.00" arrival="28923.00" arrivalLane="638541495#1_0" arrivalPos="26.02" arrivalSpeed="7.15" duration="123.00" routeLength="629.94" waitingTime="46.00" waitingCount="1" stopTime="0.00" timeLoss="62.80" rerouteNo="1" devices="tripinfo_from_east_straight_morning_peak.0 routing_from_east_straight_morning_peak.0" vType="motorcycle" speedFactor="1.01" vaporized=""/>
    <tripinfo id="from_east_straight_morning_peak.3" depart="28818.00" departLane="1354145734#1_0" departPos="2.30" departSpeed="0.00" departDelay="13.91" arrival="28923.00" arrivalLane="638541495#1_1" arrivalPos="26.02" arrivalSpeed="9.24" duration="105.00" routeLength="629.94" waitingTime="26.00" waitingCount="1" stopTime="0.00" timeLoss="50.56" rerouteNo="1" devices="tripinfo_from_east_straight_morning_peak.3 routing_from_east_straight_morning_peak.3" vType="motorcycle" speedFactor="1.11" vaporized=""/>
    <tripinfo id="from_east_straight_morning_peak.4" depart="28820.00" departLane="1354145734#1_0" departPos="5.10" departSpeed="0.00" departDelay="14.54" arrival="28926.00" arrivalLane="638541495#1_0" arrivalPos="26.02" arrivalSpeed="7.20" duration="106.00" routeLength="627.14" waitingTime="24.00" waitingCount="1" stopTime="0.00" timeLoss="46.51" rerouteNo="1" devices="tripinfo_from_east_straight_morning_peak.4 routing_from_east_straight_morning_peak.4" vType="auto" speedFactor="1.01" vaporized=""/>
    <tripinfo id="16" depart="28858.00" departLane="-49687940#3_0" departPos="5.10" departSpeed="0.00" departDelay="0.40" arrival="28933.00" arrivalLane="132907563#3_0" arrivalPos="77.49" arrivalSpeed="14.60" duration="75.00" routeLength="648.84" waitingTime="0.00" waitingCount="0" stopTime="0.00" timeLoss="20.80" rerouteNo="1" devices="tripinfo_16 routing_16" vType="DEFAULT_VEHTYPE" speedFactor="1.07" vaporized=""/>
    <tripinfo id="from_east_left_turn_morning_peak.1" depart="28824.00" departLane="1354145734#1_0" departPos="2.30" departSpeed="0.00" departDelay="17.63" arrival="28934.00" arrivalLane="1148421491#1_0" arrivalPos="44.65" arrivalSpeed="8.50" duration="110.00" routeLength="290.78" waitingTime="75.00" waitingCount="2" stopTime="0.00" timeLoss="92.90" rerouteNo="1" devices="tripinfo_from_east_left_turn_morning_peak.1 routing_from_east_left_turn_morning_peak.1" vType="motorcycle" speedFactor="1.03" vaporized=""/>
    <tripinfo id="24" depart="28887.00" departLane="169711262#1_0" departPos="0.20" departSpeed="0.00" departDelay="0.60" arrival="28935.00" arrivalLane="169709317#2_0" arrivalPos="1.34" arrivalSpeed="5.06" duration="48.00" routeLength="382.49" waitingTime="0.00" waitingCount="0" stopTime="0.00" timeLoss="19.12" rerouteNo="1" devices="tripinfo_24 routing_24" vType="DEFAULT_VEHTYPE" speedFactor="1.11" vaporized=""/>