<?xml version="1.0" encoding="UTF-8"?>

<!-- generated on 2026-02-06 23:38:43 by Eclipse SUMO sumo Version 1.24.0
<sumoConfiguration xmlns:xsi="http://www.w3.org/2001/XMLSchema-instance" xsi:noNamespaceSchemaLocation="http://sumo.dlr.de/xsd/sumoConfiguration.xsd">

    <input>
        <net-file value="SUMO_Trinity_Traffic_sim/osm.net.xml.gz"/>
        <route-files value="SUMO_Trinity_Traffic_sim/mg_road.rou.xml,SUMO_Trinity_Traffic_sim/ background.rou.xml"/>
        <additional-files value="SUMO_Trinity_Traffic_sim/osm.poly.xml.gz"/>
    </input>

    <output>
        <tripinfo-output value="SUMO_Trinity_Traffic_sim/tripinfo.xml"/>
    </output>

    <time>
        <begin value="28800.0"/>
        <step-length value="1.0"/>
    </time>

    <processing>
        <ignore-route-errors value="true"/>
        <tls.actuated.jam-threshold value="30"/>
    </processing>

    <routing>
        <device.rerouting.adaptation-steps value="18"/>
        <device.rerouting.adaptation-interval value="10"/>
    </routing>

    <report>
        <verbose value="true"/>
        <no-warnings value="true"/>
        <duration-log.statistics value="true"/>
        <no-step-log value="true"/>
    </report>

    <traci_server>
        <remote-port value="57974"/>
    </traci_server>

    <random_number>
        <seed value="30"/>
    </random_number>

    <gui_only>
        <gui-settings-file value="SUMO_Trinity_Traffic_sim/osm.view.xml"/>
        <quit-on-end value="true"/>
    </gui_only>

</sumoConfiguration>
-->

<tripinfos xmlns:xsi="http://www.w3.org/2001/XMLSchema-instance" xsi:noNamespaceSchemaLocation="http://sumo.dlr.de/xsd/tripinfo_file.xsd">
    <tripinfo id="from_east_right_turn_morning_peak.0" depart="28807.00" departLane="1354145734#1_0" departPos="2.30" departSpeed="0.00" departDelay="7.00" arrival="28835.00" arrivalLane="328349209#9_1" arrivalPos="20.69" arrivalSpeed="22.43" duration="28.00" routeLength="366.20" waitingTime="0.00" waitingCount="0" stopTime="0.00" timeLoss="12.02" rerouteNo="1" devices="tripinfo_from_east_right_turn_morning_peak.0 routing_from_east_right_turn_morning_peak.0" vType="motorcycle" speedFactor="0.91" vaporized=""/>
    <tripinfo id="from_east_left_turn_morning_peak.0" depart="28804.00" departLane="1354145734#1_0" departPos="5.10" departSpeed="0.00" departDelay="4.00" arrival="28836.00" arrivalLane="1148421491#1_0" arrivalPos="44.65" arrivalSpeed="7.58" duration="32.00" routeLength="287.98" waitingTime="1.00" waitingCount="1" stopTime="0.00" timeLoss="14.49" rerouteNo="1" devices="tripinfo_from_east_left_turn_morning_peak.0 routing_from_east_left_turn_morning_peak.0" vType="car" speedFactor="1.01" vaporized=""/>
    <tripinfo id="0" depart="28800.00" departLane="169709329#5_0" departPos="5.10" departSpeed="0.00" departDelay="0.00" arrival="28842.00" arrivalLane="-1103062099#1_0" arrivalPos="7.64" arrivalSpeed="10.57" duration="42.00" routeLength="124.30" waitingTime="0.00" waitingCount="0" stopTime="0.00" timeLoss="10.05" rerouteNo="1" devices="tripinfo_0 routing_0" vType="DEFAULT_VEHTYPE" speedFactor="0.83" vaporized=""/>
    <tripinfo id="emergency_fire_truck_east_morning_peak.0" depart="28811.00" departLane="1354145734#1_0" departPos="9.10" departSpeed="0.00" departDelay="11.00" arrival="28842.00" arrivalLane="1148421491#1_0" arrivalPos="44.65" arrivalSpeed="7.81" duration="31.00" routeLength="283.98" waitingTime="0.00" waitingCount="0" stopTime="0.00" timeLoss="13.61" rerouteNo="1" devices="tripinfo_emergency_fire_truck_east_morning_peak.0 routing_emergency_fire_truck_east_morning_peak.0" vType="fire_truck" speedFactor="1.00" vaporized=""/>
    <tripinfo id="from_west_left_turn_morning_peak.0" depart="28801.00" departLane="263812623#1_0" departPos="2.30" departSpeed="0.00" departDelay="1.00" arrival="28853.00" arrivalLane="328349209#9_0" arrivalPos="20.69" arrivalSpeed="26.04" duration="52.00" routeLength="677.53" waitingTime="0.00" waitingCount="0" stopTime="0.00" timeLoss="11.10" rerouteNo="1" devices="tripinfo_from_west_left_turn_morning_peak.0 routing_from_west_left_turn_morning_peak.0" vType="motorcycle" speedFactor="0.98" vaporized=""/>
    <tripinfo id="3" depart="28811.00" departLane="491106117#3_0" departPos="5.10" departSpeed="0.00" departDelay="0.20" arrival="28854.00" arrivalLane="-132907566#1_0" arrivalPos="45.08" arrivalSpeed="11.42" duration="43.00" routeLength="342.86" waitingTime="0.00" waitingCount="0" stopTime="0.00" timeLoss="10.92" rerouteNo="1" devices="tripinfo_3 routing_3" vType="DEFAULT_VEHTYPE" speedFactor="0.88" vaporized=""/>
    <tripinfo id="from_east_left_turn_morning_peak.1" depart="28825.00" departLane="1354145734#1_0" departPos="5.10" departSpeed="0.00" departDelay="18.63" arrival="28859.00" arrivalLane="1148421491#1_0" arrivalPos="44.65" arrivalSpeed="8.74" duration="34.00" routeLength="287.98" waitingTime="0.00" waitingCount="0" stopTime="0.00" timeLoss="17.32" rerouteNo="1" devices="tripinfo_from_east_left_turn_morning_peak.1 routing_from_east_left_turn_morning_peak.1" vType="auto" speedFactor="1.05" vaporized=""/>
    <tripinfo id="from_west_straight_morning_peak.0" depart="28800.00" departLane="263812623#1_0" departPos="5.10" departSpeed="0.00" departDelay="0.00" arrival="28860.00" arrivalLane="638541497#16_0" arrivalPos="109.58" arrivalSpeed="26.80" duration="60.00" routeLength="1045.99" waitingTime="0.00" waitingCount="0" stopTime="0.00" timeLoss="5.87" rerouteNo="1" devices="tripinfo_from_west_straight_morning_peak.0 routing_from_west_straight_morning_peak.0" vType="car" speedFactor="0.97" vaporized=""/>
    <tripinfo id="from_east_right_turn_morning_peak.1" depart="28827.00" departLane="1354145734#1_0" departPos="2.30" departSpeed="0.00" departDelay="20.63" arrival="28860.00" arrivalLane="328349209#9_1" arrivalPos="20.69" arrivalSpeed="26.10" duration="33.00" routeLength="366.20" waitingTime="1.00" waitingCount="1" stopTime="0.00" timeLoss="18.59" rerouteNo="1" devices="tripinfo_from_east_right_turn_morning_peak.1 routing_from_east_right_turn_morning_peak.1" vType="motorcycle" speedFactor="1.03" vaporized=""/>
    <tripinfo id="from_south_right_turn_morning_peak.0" depart="28803.00" departLane="638541493#1_0" departPos="5.10" departSpeed="0.00" departDelay="3.00" arrival="28861.00" arrivalLane="638541497#1_1" arrivalPos="50.87" arrivalSpeed="19.07" duration="58.00" routeLength="159.24" waitingTime="32.00" waitingCount="1" stopTime="0.00" timeLoss="44.64" rerouteNo="1" devices="tripinfo_from_south_right_turn_morning_peak.0 routing_from_south_right_turn_morning_peak.0" vType="car" speedFactor="0.97" vaporized=""/>
    <tripinfo id="from_south_right_turn_morning_peak.1" depart="28809.00" departLane="638541493#1_0" departPos="2.30" departSpeed="0.00" departDelay="1.24" arrival="28863.00" arrivalLane="638541497#1_1" arrivalPos="50.87" arrivalSpeed="25.07" duration="54.00" routeLength="162.04" waitingTime="30.00" waitingCount="2" stopTime="0.00" timeLoss="42.44" rerouteNo="1" devices="tripinfo_from_south_right_turn_morning_peak.1 routing_from_south_right_turn_morning_peak.1" vType="motorcycle" speedFactor="1.09" vaporized=""/>
    <tripinfo id="from_east_right_turn_morning_peak.2" depart="28841.00" departLane="1354145734#1_0" departPos="2.30" departSpeed="0.00" departDelay="28.26" arrival="28866.00" arrivalLane="328349209#9_1" arrivalPos="20.69" arrivalSpeed="23.89" duration="25.00" routeLength="366.20" waitingTime="0.00" waitingCount="0" stopTime="0.00" timeLoss="10.34" rerouteNo="1" devices="tripinfo_from_east_right_turn_morning_peak.2 routing_from_east_right_turn_morning_peak.2" vType="motorcycle" speedFactor="0.97" vaporized=""/>
    <tripinfo id="emergency_ambulance_west_morning_peak.0" depart="28804.00" departLane="263812623#1_0" departPos="5.10" departSpeed="0.00" departDelay="4.00" arrival="28869.00" arrivalLane="638541497#16_0" arrivalPos="109.58" arrivalSpeed="27.76" duration="65.00" routeLength="1045.99" waitingTime="2.00" waitingCount="1" stopTime="0.00" timeLoss="12.64" rerouteNo="1" devices="tripinfo_emergency_ambulance_west_morning_peak.0 routing_emergency_ambulance_west_morning_peak.0" vType="ambulance" speedFactor="1.00" vaporized=""/>
    <tripinfo id="from_south_right_turn_morning_peak.2" depart="28818.00" departLane="638541493#1_0" departPos="2.30" departSpeed="0.00" departDelay="2.48" arrival="28869.00" arrivalLane="638541497#1_1" arrivalPos="50.87" arrivalSpeed="20.35" duration="51.00" routeLength="162.04" waitingTime="22.00" waitingCount="1" stopTime="0.00" timeLoss="34.82" rerouteNo="1" devices="tripinfo_from_south_right_turn_morning_peak.2 routing_from_south_right_turn_morning_peak.2" vType="motorcycle" speedFactor="0.80" vaporized=""/>
    <tripinfo id="from_south_right_turn_morning_peak.3" depart="28825.00" departLane="638541493#1_0" departPos="2.30" departSpeed="0.00" departDelay="1.73" arrival="28871.00" arrivalLane="638541497#1_1" arrivalPos="50.87" arrivalSpeed="26.95" duration="46.00" routeLength="162.04" waitingTime="18.00" waitingCount="1" stopTime="0.00" timeLoss="33.60" rerouteNo="1" devices="tripinfo_from_south_right_turn_morning_peak.3 routing_from_south_right_turn_morning_peak.3" vType="motorcycle" speedFactor="1.10" vaporized=""/>
    <tripinfo id="from_south_right_turn_morning_peak.4" depart="28835.00" departLane="638541493#1_0" departPos="5.10" departSpeed="0.00" departDelay="3.97" arrival="28873.00" arrivalLane="638541497#1_1" arrivalPos="50.87" arrivalSpeed="18.67" duration="38.00" routeLength="159.24" waitingTime="7.00" waitingCount="2" stopTime="0.00" timeLoss="26.44" rerouteNo="1" devices="tripinfo_from_south_right_turn_morning_peak.4 routing_from_south_right_turn_morning_peak.4" vType="auto" speedFactor="1.09" vaporized=""/>
    <tripinfo id="from_south_straight_morning_peak.0" depart="28800.00" departLane="638541493#1_0" departPos="7.20" departSpeed="0.00" departDelay="0.00" arrival="28874.00" arrivalLane="328349209#9_0" arrivalPos="20.69" arrivalSpeed="20.28" duration="74.00" routeLength="340.54" waitingTime="33.00" waitingCount="1" stopTime="0.00" timeLoss="55.12" rerouteNo="1" devices="tripinfo_from_south_straight_morning_peak.0 routing_from_south_straight_morning_peak.0" vType="truck" speedFactor="1.00" vaporized=""/>
    <tripinfo id="from_east_straight_morning_peak.0" depart="28800.00" departLane="1354145734#1_0" departPos="12.10" departSpeed="0.00" departDelay="0.00" arrival="28876.00" arrivalLane="638541495#1_1" arrivalPos="26.02" arrivalSpeed="7.92" duration="76.00" routeLength="620.14" waitingTime="0.00" waitingCount="0" stopTime="0.00" timeLoss="15.59" rerouteNo="1" devices="tripinfo_from_east_straight_morning_peak.0 routing_from_east_straight_morning_peak.0" vType="bus" speedFactor="1.00" vaporized=""/>
    <tripinfo id="emergency_ambulance_south_morning_peak.0" depart="28805.00" departLane="638541493#1_0" departPos="5.10" departSpeed="0.00" departDelay="5.00" arrival="28876.00" arrivalLane="328349209#9_0" arrivalPos="20.69" arrivalSpeed="24.51" duration="71.00" routeLength="342.64" waitingTime="31.00" waitingCount="1" stopTime="0.00" timeLoss="50.76" rerouteNo="1" devices="tripinfo_emergency_ambulance_south_morning_peak.0 routing_emergency_ambulance_south_morning_peak.0" vType="ambulance" speedFactor="1.00" vaporized=""/>
    <tripinfo id="from_south_left_turn_morning_peak.0" depart="28801.00" departLane="638541493#1_0" departPos="2.30" departSpeed="0.00" departDelay="1.00" arrival="28877.00" arrivalLane="638541495#2_0" arrivalPos="30.24" arrivalSpeed="5.29" duration="76.00" routeLength="503.80" waitingTime="0.00" waitingCount="0" stopTime="0.00" timeLoss="16.94" rerouteNo="1" devices="tripinfo_from_south_left_turn_morning_peak.0 routing_from_south_left_turn_morning_peak.0" vType="motorcycle" speedFactor="0.96" vaporized=""/>
    <tripinfo id="from_south_right_turn_morning_peak.5" depart="28844.00" departLane="638541493#1_0" departPos="5.10" departSpeed="0.00" departDelay="5.21" arrival="28877.00" arrivalLane="638541497#1_1" arrivalPos="50.87" arrivalSpeed="19.90" duration="33.00" routeLength="159.24" waitingTime="7.00" waitingCount="1" stopTime="0.00" timeLoss="20.90" rerouteNo="1" devices="tripinfo_from_south_right_turn_morning_peak.5 routing_from_south_right_turn_morning_peak.5" vType="auto" speedFactor="1.01" vaporized=""/>
    <tripinfo id="2" depart="28808.00" departLane="26284129#7_0" departPos="5.10" departSpeed="0.00" departDelay="0.80" arrival="28879.00" arrivalLane="213042766#5_0" arrivalPos="50.03" arrivalSpeed="15.04" duration="71.00" routeLength="1012.11" waitingTime="0.00" waitingCount="0" stopTime="0.00" timeLoss="19.48" rerouteNo="1" devices="tripinfo_2 routing_2" vType="DEFAULT_VEHTYPE" speedFactor="1.22" vaporized=""/>
    <tripinfo id="from_south_right_turn_morning_peak.6" depart="28848.00" departLane="638541493#1_0" departPos="2.30" departSpeed="0.00" departDelay="1.45" arrival="28881.00" arrivalLane="638541497#1_1" arrivalPos="50.87" arrivalSpeed="24.96" duration="33.00" routeLength="162.04" waitingTime="6.00" waitingCount="1" stopTime="0.00" timeLoss="18.98" rerouteNo="1" devices="tripinfo_from_south_right_turn_morning_peak.6 routing_from_south_right_turn_morning_peak.6" vType="motorcycle" speedFactor="0.99" vaporized=""/>
    <tripinfo id="10" depart="28836.00" departLane="36257667#9_0" departPos="5.10" departSpeed="0.00" departDelay="0.00" arrival="28883.00" arrivalLane="213087089_0" arrivalPos="91.98" arrivalSpeed="12.51" duration="47.00" routeLength="437.32" waitingTime="0.00" waitingCount="0" stopTime="0.00" timeLoss="10.16" rerouteNo="1" devices="tripinfo_10 routing_10" vType="DEFAULT_VEHTYPE" speedFactor="0.96" vaporized=""/>
    <tripinfo id="from_south_right_turn_morning_peak.7" depart="28861.00" departLane="638541493#1_0" departPos="5.10" departSpeed="0.00" departDelay="6.69" arrival="28883.00" arrivalLane="638541497#1_1" arrivalPos="50.87" arrivalSpeed="19.50" duration="22.00" routeLength="159.24" waitingTime="0.00" waitingCount="0" stopTime="0.00" timeLoss="9.32" rerouteNo="1" devices="tripinfo_from_south_right_turn_morning_peak.7 routing_from_south_right_turn_morning_peak.7" vType="car" speedFactor="1.03" vaporized=""/>
    <tripinfo id="from_south_right_turn_morning_peak.8" depart="28865.00" departLane="638541493#1_0" departPos="2.30" departSpeed="0.00" departDelay="2.94" arrival="28884.00" arrivalLane="638541497#1_1" arrivalPos="50.87" arrivalSpeed="23.40" duration="19.00" routeLength="162.04" waitingTime="0.00" waitingCount="0" stopTime="0.00" timeLoss="7.45" rerouteNo="1" devices="tripinfo_from_south_right_turn_morning_peak.8 routing_from_south_right_turn_morning_peak.8" vType="motorcycle" speedFactor="1.14" vaporized=""/>
    <tripinfo id="7" depart="28826.00" departLane="169711262#3_0" departPos="5.10" departSpeed="0.00" departDelay="0.80" arrival="28885.00" arrivalLane="132907562#1_0" arrivalPos="14.25" arrivalSpeed="11.57" duration="59.00" routeLength="573.45" waitingTime="0.00" waitingCount="0" stopTime="0.00" timeLoss="10.87" rerouteNo="1" devices="tripinfo_7 routing_7" vType="DEFAULT_VEHTYPE" speedFactor="0.90" vaporized=""/>
    <tripinfo id="emergency_ambulance_east_morning_peak.0" depart="28808.00" departLane="1354145734#1_0" departPos="5.10" departSpeed="0.00" departDelay="8.00" arrival="28887.00" arrivalLane="638541495#1_0" arrivalPos="26.02" arrivalSpeed="8.11" duration="79.00" routeLength="627.14" waitingTime="0.00" waitingCount="0" stopTime="0.00" timeLoss="19.14" rerouteNo="1" devices="tripinfo_emergency_ambulance_east_morning_peak.0 routing_emergency_ambulance_east_morning_peak.0" vType="ambulance" speedFactor="1.00" vaporized=""/>
    <tripinfo id="from_east_right_turn_morning_peak.3" depart="28858.00" departLane="1354145734#1_0" departPos="5.10" departSpeed="0.00" departDelay="38.89" arrival="28887.00" arrivalLane="328349209#9_1" arrivalPos="20.69" arrivalSpeed="27.31" duration="29.00" routeLength="363.40" waitingTime="0.00" waitingCount="0" stopTime="0.00" timeLoss="15.46" rerouteNo="1" devices="tripinfo_from_east_right_turn_morning_peak.3 routing_from_east_right_turn_morning_peak.3" vType="auto" speedFactor="1.03" vaporized=""/>
    <tripinfo id="from_east_straight_morning_peak.1" depart="28814.00" departLane="1354145734#1_0" departPos="5.10" departSpeed="0.00" departDelay="12.64" arrival="28889.00" arrivalLane="638541495#1_0" arrivalPos="26.02" arrivalSpeed="8.23" duration="75.00" routeLength="627.14" waitingTime="0.00" waitingCount="0" stopTime="0.00" timeLoss="17.41" rerouteNo="1" devices="tripinfo_from_east_straight_morning_peak.1 routing_from_east_straight_morning_peak.1" vType="car" speedFactor="1.04" vaporized=""/>
    <tripinfo id="from_south_straight_morning_peak.1" depart="28836.00" departLane="638541493#1_0" departPos="12.10" departSpeed="0.00" departDelay="1.05" arrival="28891.00" arrivalLane="328349209#9_0" arrivalPos="20.69" arrivalSpeed="19.60" duration="55.00" routeLength="335.64" waitingTime="13.00" waitingCount="3" stopTime="0.00" timeLoss="36.72" rerouteNo="1" devices="tripinfo_from_south_straight_morning_peak.1 routing_from_south_straight_morning_peak.1" vType="bus" speedFactor="1.00" vaporized=""/>
    <tripinfo id="from_south_right_turn_morning_peak.9" depart="28873.00" departLane="638541493#1_0" departPos="5.10" departSpeed="0.00" departDelay="3.18" arrival="28891.00" arrivalLane="638541497#1_1" arrivalPos="50.87" arrivalSpeed="19.76" duration="18.00" routeLength="159.24" waitingTime="0.00" waitingCount="0" stopTime="0.00" timeLoss="4.80" rerouteNo="1" devices="tripinfo_from_south_right_turn_morning_peak.9 routing_from_south_right_turn_morning_peak.9" vType="car" speedFactor="1.01" vaporized=""/>
    <tripinfo id="from_south_left_turn_morning_peak.1" depart="28808.00" departLane="638541493#1_0" departPos="2.30" departSpeed="0.00" departDelay="0.24" arrival="28892.00" arrivalLane="638541495#2_0" arrivalPos="30.24" arrivalSpeed="6.78" duration="84.00" routeLength="503.80" waitingTime="0.00" waitingCount="0" stopTime="0.00" timeLoss="18.60" rerouteNo="1" devices="tripinfo_from_south_left_turn_morning_peak.1 routing_from_south_left_turn_morning_peak.1" vType="motorcycle" speedFactor="0.86" vaporized=""/>
    <tripinfo id="from_east_straight_morning_peak.2" depart="28817.00" departLane="1354145734#1_0" departPos="5.10" departSpeed="0.00" departDelay="14.27" arrival="28895.00" arrivalLane="638541495#1_0" arrivalPos="26.02" arrivalSpeed="7.44" duration="78.00" routeLength="627.14" waitingTime="0.00" waitingCount="0" stopTime="0.00" timeLoss="13.72" rerouteNo="1" devices="tripinfo_from_east_straight_morning_peak.2 routing_from_east_straight_morning_peak.2" vType="auto" speedFactor="0.93" vaporized=""/>
    <tripinfo id="from_south_straight_morning_peak.2" depart="28870.00" departLane="638541493#1_0" departPos="2.30" departSpeed="0.00" departDelay="0.10" arrival="28895.00" arrivalLane="328349209#9_0" arrivalPos="20.69" arrivalSpeed="27.10" duration="25.00" routeLength="345.44" waitingTime="0.00" waitingCount="0" stopTime="0.00" timeLoss="7.36" rerouteNo="1" devices="tripinfo_from_south_straight_morning_peak.2 routing_from_south_straight_morning_peak.2" vType="motorcycle" speedFactor="1.08" vaporized=""/>
    <tripinfo id="from_east_straight_morning_peak.3" depart="28819.00" departLane="1354145734#1_0" departPos="5.10" departSpeed="0.00" departDelay="14.91" arrival="28896.00" arrivalLane="638541495#1_1" arrivalPos="26.02" arrivalSpeed="7.14" duration="77.00" routeLength="627.14" waitingTime="0.00" waitingCount="0" stopTime="0.00" timeLoss="13.51" rerouteNo="1" devices="tripinfo_from_east_straight_morning_peak.3 routing_from_east_straight_morning_peak.3" vType="auto" speedFactor="0.95" vaporized=""/>
    <tripinfo id="from_east_straight_morning_peak.4" depart="28822.00" departLane="1354145734#1_0" departPos="5.10" departSpeed="0.00" departDelay="16.54" arrival="28897.00" arrivalLane="638541495#1_0" arrivalPos="26.02" arrivalSpeed="7.89" duration="75.00" routeLength="627.14" waitingTime="0.00" waitingCount="0" stopTime="0.00" timeLoss="18.49" rerouteNo="1" devices="tripinfo_from_east_straight_morning_peak.4 routing_from_east_straight_morning_peak.4" vType="auto" speedFactor="1.07" vaporized=""/>
    <tripinfo id="11" depart="28840.00" departLane="-484510040#17_0" departPos="5.10" departSpeed="0.00" departDelay="0.40" arrival="28900.00" arrivalLane="-169711276#0_0" arrivalPos="9.15" arrivalSpeed="11.35" duration="60.00" routeLength="610.46" waitingTime="0.00" waitingCount="0" stopTime="0.00" timeLoss="19.59" rerouteNo="1" devices="tripinfo_11 routing_11" vType="DEFAULT_VEHTYPE" speedFactor="0.95" vaporized=""/>
    <tripinfo id="from_east_left_turn_morning_peak.2" depart="28839.00" departLane="1354145734#1_0" departPos="2.30" departSpeed="0.00" departDelay="26.26" arrival="28909.00" arrivalLane="1148421491#1_0" arrivalPos="44.65" arrivalSpeed="8.14" duration="70.00" routeLength="290.78" waitingTime="34.00" waitingCount="1" stopTime="0.00" timeLoss="53.73" rerouteNo="1" devices="tripinfo_from_east_left_turn_morning_peak.2 routing_from_east_left_turn_morning_peak.2" vType="motorcycle" speedFactor="1.07" vaporized=""/>
    <tripinfo id="from_south_left_turn_morning_peak.2" depart="28816.00" departLane="638541493#1_0" departPos="2.30" departSpeed="0.00" departDelay="0.48" arrival="28909.00" arrivalLane="638541495#2_0" arrivalPos="30.24" arrivalSpeed="6.18" duration="93.00" routeLength="503.80" waitingTime="18.00" waitingCount="1" stopTime="0.00" timeLoss="34.21" rerouteNo="1" devices="tripinfo_from_south_left_turn_morning_peak.2 routing_from_south_left_turn_morning_peak.2" vType="motorcycle" speedFactor="0.97" vaporized=""/>
    <tripinfo id="30" depart="28908.00" departLane="-37110889#1_0" departPos="5.10" departSpeed="0.00" departDelay="0.00" arrival="28910.00" arrivalLane="-37110889#1_0" arrivalPos="11.84" arrivalSpeed="4.89" duration="2.00" routeLength="6.74" waitingTime="0.00" waitingCount="0" stopTime="0.00" timeLoss="1.69" rerouteNo="1" devices="tripinfo_30 routing_30" vType="DEFAULT_VEHTYPE" speedFactor="1.09" vaporized=""/>
    <tripinfo id="1" depart="28804.00" departLane="-26284183#2_0" departPos="5.10" departSpeed="0.00" departDelay="0.40" arrival="28911.00" arrivalLane="-26284129#7_0" arrivalPos="40.68" arrivalSpeed="18.02" duration="107.00" routeLength="563.24" waitingTime="51.00" waitingCount="1" stopTime="0.00" timeLoss="71.24" rerouteNo="1" devices="tripinfo_1 routing_1" vType="DEFAULT_VEHTYPE" speedFactor="0.90" vaporized=""/>
    <tripinfo id="emergency_fire_truck_west_morning_peak.0" depart="28808.00" departLane="263812623#1_0" departPos="9.10" departSpeed="0.00" departDelay="8.00" arrival="28911.00" arrivalLane="328349209#9_0" arrivalPos="20.69" arrivalSpeed="27.62" duration="103.00" routeLength="670.73" waitingTime="47.00" waitingCount="2" stopTime="0.00" timeLoss="64.06" rerouteNo="1" devices="tripinfo_emergency_fire_truck_west_morning_peak.0 routing_emergency_fire_truck_west_morning_peak.0" vType="fire_truck" speedFactor="1.00" vaporized=""/>
    <tripinfo id="from_south_left_turn_morning_peak.4" depart="28832.00" departLane="638541493#1_0" departPos="5.10" departSpeed="0.00" departDelay="0.97" arrival="28911.00" arrivalLane="638541495#2_0" arrivalPos="30.24" arrivalSpeed="7.69" duration="79.00" routeLength="501.00" waitingTime="4.00" waitingCount="1" stopTime="0.00" timeLoss="21.62" rerouteNo="1" devices="tripinfo_from_south_left_turn_morning_peak.4 routing_from_south_left_turn_morning_peak.4" vType="car" speedFactor="1.00" vaporized=""/>
    <tripinfo id="from_west_left_turn_morning_peak.1" depart="28819.00" departLane="263812623#1_0" departPos="2.30" departSpeed="0.00" departDelay="13.44" arrival="28913.00" arrivalLane="328349209#9_0" arrivalPos="20.69" arrivalSpeed="26.11" duration="94.00" routeLength="677.53" waitingTime="35.00" waitingCount="1" stopTime="0.00" timeLoss="52.46" rerouteNo="1" devices="tripinfo_from_west_left_turn_morning_peak.1 routing_from_west_left_turn_morning_peak.1" vType="motorcycle" speedFactor="0.94" vaporized=""/>
    <tripinfo id="12" depart="28846.00" departLane="638541497#8_0" departPos="5.10" departSpeed="0.00" departDelay="2.80" arrival="28919.00" arrivalLane="-553250634#1_0" arrivalPos="19.11" arrivalSpeed="8.53" duration="73.00" routeLength="630.48" waitingTime="21.00" waitingCount="1" stopTime="0.00" timeLoss="43.45" rerouteNo="1" devices="tripinfo_12 routing_12" vType="DEFAULT_VEHTYPE" speedFactor="0.91" vaporized=""/>
    <tripinfo id="from_east_left_turn_morning_peak.3" depart="28855.00" departLane="1354145734#1_0" departPos="5.10" departSpeed="0.00" departDelay="35.89" arrival="28919.00" arrivalLane="1148421491#1_0" arrivalPos="44.65" arrivalSpeed="7.15" duration="64.00" routeLength="287.98" waitingTime="24.00" waitingCount="1" stopTime="0.00" timeLoss="45.58" rerouteNo="1" devices="tripinfo_from_east_left_turn_morning_peak.3 routing_from_east_left_turn_morning_peak.3" vType="auto" speedFactor="0.94" vaporized=""/>
    <tripinfo id="from_west_straight_morning_peak.3" depart="28815.00" departLane="263812623#1_0" departPos="5.10" departSpeed="0.00" departDelay="11.42" arrival="28922.00" arrivalLane="638541497#16_0" arrivalPos="109.58" arrivalSpeed="26.98" duration="107.00" routeLength="1045.99" waitingTime="40.00" waitingCount="1" stopTime="0.00" timeLoss="53.05" rerouteNo="1" devices="tripinfo_from_west_straight_morning_peak.3 routing_from_west_straight_morning_peak.3" vType="car" speedFactor="0.98" vaporized=""/>
    <tripinfo id="from_west_straight_morning_peak.1" depart="28810.00" departLane="263812623#1_0" departPos="5.10" departSpeed="0.00" departDelay="8.81" arrival="28923.00" arrivalLane="638541497#16_1" arrivalPos="109.58" arrivalSpeed="26.33" duration="113.00" routeLength="1045.99" waitingTime="42.00" waitingCount="1" stopTime="0.00" timeLoss="59.01" rerouteNo="1" devices="tripinfo_from_west_straight_morning_peak.1 routing_from_west_straight_morning_peak.1" vType="car" speedFactor="0.98" vaporized=""/>
    <tripinfo id="from_west_left_turn_morning_peak.2" depart="28834.00" departLane="263812623#1_0" departPos="5.10" departSpeed="0.00" departDelay="22.87" arrival="28923.00" arrivalLane="328349209#9_0" arrivalPos="20.69" arrivalSpeed="27.16" duration="89.00" routeLength="674.73" waitingTime="30.00" waitingCount="2" stopTime="0.00" timeLoss="51.90" rerouteNo="1" devices="tripinfo_from_west_left_turn_morning_peak.2 routing_from_west_left_turn_morning_peak.2" vType="auto" speedFactor="1.04" vaporized=""/>
    <tripinfo id="from_west_straight_morning_peak.5" depart="28818.00" departLane="263812623#1_0" departPos="2.30" departSpeed="0.00" departDelay="12.04" arrival="28925.00" arrivalLane="638541497#16_0" arrivalPos="109.58" arrivalSpeed="25.18" duration="107.00" routeLength="1048.79" waitingTime="37.00" waitingCount="1" stopTime="0.00" timeLoss="50.49" rerouteNo="1" devices="tripinfo_from_west_straight_morning_peak.5 routing_from_west_straight_morning_peak.5" vType="motorcycle" speedFactor="0.94" vaporized=""/>
    <tripinfo id="from_south_left_turn_morning_peak.3" depart="28824.00" departLane="638541493#1_0" departPos="2.30" departSpeed="0.00" departDelay="0.73" arrival="28925.00" arrivalLane="638541495#2_0" arrivalPos="30.24" arrivalSpeed="5.80" duration="101.00" routeLength="503.80" waitingTime="9.00" waitingCount="1" stopTime="0.00" timeLoss="33.01" rerouteNo="1" devices="tripinfo_from_south_left_turn_morning_peak.3 routing_from_south_left_turn_morning_peak.3" vType="motorcycle" speedFactor="0.85" vaporized=""/>
    <tripinfo id="from_south_left_turn_morning_peak.6" depart="28847.00" departLane="638541493#1_0" departPos="2.30" departSpeed="0.00" departDelay="0.45" arrival="28926.00" arrivalLane="638541495#2_0" arrivalPos="30.24" arrivalSpeed="8.75" duration="79.00" routeLength="503.80" waitingTime="7.00" waitingCount="1" stopTime="0.00" timeLoss="30.30" rerouteNo="1" devices="tripinfo_from_south_left_turn_morning_peak.6 routing_from_south_left_turn_morning_peak.6" vType="motorcycle" speedFactor="1.17" vaporized=""/>
    <tripinfo id="from_west_straight_morning_peak.6" depart="28822.00" departLane="263812623#1_0" departPos="5.10" departSpeed="0.00" departDelay="14.85" arrival="28928.00" arrivalLane="638541497#16_0" arrivalPos="109.58" arrivalSpeed="26.30" duration="106.00" routeLength="1045.99" waitingTime="34.00" waitingCount="1" stopTime="0.00" timeLoss="50.29" rerouteNo="1" devices="tripinfo_from_west_straight_morning_peak.6 routing_from_west_straight_morning_peak.6" vType="car" speedFactor="0.95" vaporized=""/>
    <tripinfo id="from_south_left_turn_morning_peak.7" depart="28855.00" departLane="638541493#1_0" departPos="2.30" departSpeed="0.00" departDelay="0.69" arrival="28928.00" arrivalLane="638541495#2_0" arrivalPos="30.24" arrivalSpeed="8.49" duration="73.00" routeLength="503.80" waitingTime="2.00" waitingCount="1" stopTime="0.00" timeLoss="20.41" rerouteNo="1" devices="tripinfo_from_south_left_turn_morning_peak.7 routing_from_south_left_turn_morning_peak.7" vType="motorcycle" speedFactor="1.10" vaporized=""/>
    <tripinfo id="from_west_right_turn_morning_peak.0" depart="28803.00" departLane="263812623#1_0" departPos="5.10" departSpeed="0.00" departDelay="3.00" arrival="28930.00" arrivalLane="1148421491#1_0" arrivalPos="44.65" arrivalSpeed="5.86" duration="127.00" routeLength="498.83" waitingTime="63.00" waitingCount="2" stopTime="0.00" timeLoss="80.71" rerouteNo="1" devices="tripinfo_from_west_right_turn_morning_peak.0 routing_from_west_right_turn_morning_peak.0" vType="car" speedFactor="0.83" vaporized=""/>