<?xml version="1.0" encoding="UTF-8"?>

<!-- generated on 2026-02-06 22:22:51 by Eclipse SUMO sumo Version 1.24.0
<sumoConfiguration xmlns:xsi="http://www.w3.org/2001/XMLSchema-instance" xsi:noNamespaceSchemaLocation="http://sumo.dlr.de/xsd/sumoConfiguration.xsd">

    <input>
        <net-file value="SUMO_Trinity_Traffic_sim/osm.net.xml.gz"/>
        <route-files value="SUMO_Trinity_Traffic_sim/mg_road.rou.xml,SUMO_Trinity_Traffic_sim/ background.rou.xml"/>
        <additional-files value="SUMO_Trinity_Traffic_sim/osm.poly.xml.gz"/>
    </input>

    <output>
        <tripinfo-output value="SUMO_Trinity_Traffic_sim/tripinfo.xml"/>
    </output>

    <time>
        <begin value="28800.0"/>
        <step-length value="1.0"/>
    </time>

    <processing>
        <ignore-route-errors value="true"/>
        <tls.actuated.jam-threshold value="30"/>
    </processing>

    <routing>
        <device.rerouting.adaptation-steps value="18"/>
        <device.rerouting.adaptation-interval value="10"/>
    </routing>

    <report>
        <verbose value="true"/>
        <no-warnings value="true"/>
        <duration-log.statistics value="true"/>
        <no-step-log value="true"/>
    </report>

    <traci_server>
        <remote-port value="62556"/>
    </traci_server>

    <random_number>
        <seed value="15"/>
    </random_number>

    <gui_only>
        <gui-settings-file value="SUMO_Trinity_Traffic_sim/osm.view.xml"/>
        <quit-on-end value="true"/>
    </gui_only>

</sumoConfiguration>
-->

<tripinfos xmlns:xsi="http://www.w3.org/2001/XMLSchema-instance" xsi:noNamespaceSchemaLocation="http://sumo.dlr.de/xsd/tripinfo_file.xsd">
    <tripinfo id="from_south_right_turn_morning_peak.0" depart="28802.00" departLane="638541493#1_0" departPos="2.30" departSpeed="0.00" departDelay="2.00" arrival="28830.00" arrivalLane="638541497#1_1" arrivalPos="50.87" arrivalSpeed="27.44" duration="28.00" routeLength="162.04" waitingTime="2.00" waitingCount="2" stopTime="0.00" timeLoss="14.95" rerouteNo="1" devices="tripinfo_from_south_right_turn_morning_peak.0 routing_from_south_right_turn_morning_peak.0" vType="motorcycle" speedFactor="1.06" vaporized=""/>
    <tripinfo id="from_east_right_turn_morning_peak.0" depart="28803.00" departLane="1354145734#1_0" departPos="5.10" departSpeed="0.00" departDelay="3.00" arrival="28833.00" arrivalLane="328349209#9_1" arrivalPos="20.69" arrivalSpeed="23.71" duration="30.00" routeLength="363.40" waitingTime="0.00" waitingCount="0" stopTime="0.00" timeLoss="13.66" rerouteNo="1" devices="tripinfo_from_east_right_turn_morning_peak.0 routing_from_east_right_turn_morning_peak.0" vType="car" speedFactor="0.88" vaporized=""/>
    <tripinfo id="from_south_right_turn_morning_peak.1" depart="28812.00" departLane="638541493#1_0" departPos="5.10" departSpeed="0.00" departDelay="4.24" arrival="28834.00" arrivalLane="638541497#1_1" arrivalPos="50.87" arrivalSpeed="19.31" duration="22.00" routeLength="159.24" waitingTime="0.00" waitingCount="0" stopTime="0.00" timeLoss="9.72" rerouteNo="1" devices="tripinfo_from_south_right_turn_morning_peak.1 routing_from_south_right_turn_morning_peak.1" vType="car" speedFactor="1.03" vaporized=""/>
    <tripinfo id="from_south_right_turn_morning_peak.2" depart="28819.00" departLane="638541493#1_0" departPos="5.10" departSpeed="0.00" departDelay="3.48" arrival="28836.00" arrivalLane="638541497#1_1" arrivalPos="50.87" arrivalSpeed="18.69" duration="17.00" routeLength="159.24" waitingTime="0.00" waitingCount="0" stopTime="0.00" timeLoss="4.96" rerouteNo="1" devices="tripinfo_from_south_right_turn_morning_peak.2 routing_from_south_right_turn_morning_peak.2" vType="auto" speedFactor="1.05" vaporized=""/>
    <tripinfo id="0" depart="28800.00" departLane="169709329#5_0" departPos="5.10" departSpeed="0.00" departDelay="0.00" arrival="28838.00" arrivalLane="-1103062099#1_0" arrivalPos="7.64" arrivalSpeed="12.03" duration="38.00" routeLength="124.30" waitingTime="0.00" waitingCount="0" stopTime="0.00" timeLoss="11.09" rerouteNo="1" devices="tripinfo_0 routing_0" vType="DEFAULT_VEHTYPE" speedFactor="1.00" vaporized=""/>
    <tripinfo id="from_south_straight_morning_peak.0" depart="28800.00" departLane="638541493#1_0" departPos="7.20" departSpeed="0.00" departDelay="0.00" arrival="28844.00" arrivalLane="328349209#9_0" arrivalPos="20.69" arrivalSpeed="20.57" duration="44.00" routeLength="340.54" waitingTime="2.00" waitingCount="1" stopTime="0.00" timeLoss="25.81" rerouteNo="1" devices="tripinfo_from_south_straight_morning_peak.0 routing_from_south_straight_morning_peak.0" vType="truck" speedFactor="1.06" vaporized=""/>
    <tripinfo id="emergency_ambulance_south_morning_peak.0" depart="28805.00" departLane="638541493#1_0" departPos="5.10" departSpeed="0.00" departDelay="5.00" arrival="28845.00" arrivalLane="328349209#9_0" arrivalPos="20.69" arrivalSpeed="21.47" duration="40.00" routeLength="342.64" waitingTime="1.00" waitingCount="1" stopTime="0.00" timeLoss="21.21" rerouteNo="1" devices="tripinfo_emergency_ambulance_south_morning_peak.0 routing_emergency_ambulance_south_morning_peak.0" vType="ambulance" speedFactor="1.00" vaporized=""/>
    <tripinfo id="from_south_right_turn_morning_peak.3" depart="28826.00" departLane="638541493#1_0" departPos="5.10" departSpeed="0.00" departDelay="2.73" arrival="28845.00" arrivalLane="638541497#1_1" arrivalPos="50.87" arrivalSpeed="17.98" duration="19.00" routeLength="159.24" waitingTime="0.00" waitingCount="0" stopTime="0.00" timeLoss="4.82" rerouteNo="1" devices="tripinfo_from_south_right_turn_morning_peak.3 routing_from_south_right_turn_morning_peak.3" vType="car" speedFactor="0.89" vaporized=""/>
    <tripinfo id="from_east_right_turn_morning_peak.1" depart="28822.00" departLane="1354145734#1_0" departPos="2.30" departSpeed="0.00" departDelay="15.63" arrival="28848.00" arrivalLane="328349209#9_1" arrivalPos="20.69" arrivalSpeed="30.56" duration="26.00" routeLength="366.20" waitingTime="0.00" waitingCount="0" stopTime="0.00" timeLoss="12.67" rerouteNo="1" devices="tripinfo_from_east_right_turn_morning_peak.1 routing_from_east_right_turn_morning_peak.1" vType="motorcycle" speedFactor="1.11" vaporized=""/>
    <tripinfo id="3" depart="28811.00" departLane="491106117#3_0" departPos="5.10" departSpeed="0.00" departDelay="0.20" arrival="28851.00" arrivalLane="-132907566#1_0" arrivalPos="45.08" arrivalSpeed="13.11" duration="40.00" routeLength="342.86" waitingTime="0.00" waitingCount="0" stopTime="0.00" timeLoss="13.67" rerouteNo="1" devices="tripinfo_3 routing_3" vType="DEFAULT_VEHTYPE" speedFactor="1.11" vaporized=""/>
    <tripinfo id="from_south_right_turn_morning_peak.4" depart="28834.00" departLane="638541493#1_0" departPos="5.10" departSpeed="0.00" departDelay="2.97" arrival="28852.00" arrivalLane="638541497#1_1" arrivalPos="50.87" arrivalSpeed="19.92" duration="18.00" routeLength="159.24" waitingTime="0.00" waitingCount="0" stopTime="0.00" timeLoss="5.53" rerouteNo="1" devices="tripinfo_from_south_right_turn_morning_peak.4 routing_from_south_right_turn_morning_peak.4" vType="auto" speedFactor="1.04" vaporized=""/>
    <tripinfo id="from_south_right_turn_morning_peak.5" depart="28841.00" departLane="638541493#1_0" departPos="5.10" departSpeed="0.00" departDelay="2.21" arrival="28858.00" arrivalLane="638541497#1_1" arrivalPos="50.87" arrivalSpeed="20.60" duration="17.00" routeLength="159.24" waitingTime="0.00" waitingCount="0" stopTime="0.00" timeLoss="4.94" rerouteNo="1" devices="tripinfo_from_south_right_turn_morning_peak.5 routing_from_south_right_turn_morning_peak.5" vType="auto" speedFactor="1.04" vaporized=""/>
    <tripinfo id="from_south_straight_morning_peak.1" depart="28835.00" departLane="638541493#1_0" departPos="5.10" departSpeed="0.00" departDelay="0.05" arrival="28866.00" arrivalLane="328349209#9_0" arrivalPos="20.69" arrivalSpeed="27.00" duration="31.00" routeLength="342.64" waitingTime="0.00" waitingCount="0" stopTime="0.00" timeLoss="11.56" rerouteNo="1" devices="tripinfo_from_south_straight_morning_peak.1 routing_from_south_straight_morning_peak.1" vType="auto" speedFactor="0.98" vaporized=""/>
    <tripinfo id="from_south_left_turn_morning_peak.0" depart="28801.00" departLane="638541493#1_0" departPos="2.30" departSpeed="0.00" departDelay="1.00" arrival="28871.00" arrivalLane="638541495#2_0" arrivalPos="30.24" arrivalSpeed="6.12" duration="70.00" routeLength="503.80" waitingTime="0.00" waitingCount="0" stopTime="0.00" timeLoss="13.69" rerouteNo="1" devices="tripinfo_from_south_left_turn_morning_peak.0 routing_from_south_left_turn_morning_peak.0" vType="motorcycle" speedFactor="1.02" vaporized=""/>
    <tripinfo id="from_east_left_turn_morning_peak.0" depart="28802.00" departLane="1354145734#1_0" departPos="2.30" departSpeed="0.00" departDelay="2.00" arrival="28875.00" arrivalLane="1148421491#1_0" arrivalPos="44.65" arrivalSpeed="7.68" duration="73.00" routeLength="290.78" waitingTime="38.00" waitingCount="1" stopTime="0.00" timeLoss="56.37" rerouteNo="1" devices="tripinfo_from_east_left_turn_morning_peak.0 routing_from_east_left_turn_morning_peak.0" vType="motorcycle" speedFactor="1.03" vaporized=""/>
    <tripinfo id="7" depart="28826.00" departLane="169711262#3_0" departPos="5.10" departSpeed="0.00" departDelay="0.80" arrival="28875.00" arrivalLane="132907562#1_0" arrivalPos="14.25" arrivalSpeed="13.11" duration="49.00" routeLength="573.45" waitingTime="0.00" waitingCount="0" stopTime="0.00" timeLoss="11.59" rerouteNo="1" devices="tripinfo_7 routing_7" vType="DEFAULT_VEHTYPE" speedFactor="1.16" vaporized=""/>
    <tripinfo id="from_south_left_turn_morning_peak.1" depart="28808.00" departLane="638541493#1_0" departPos="7.20" departSpeed="0.00" departDelay="0.24" arrival="28876.00" arrivalLane="638541495#2_0" arrivalPos="30.24" arrivalSpeed="7.76" duration="68.00" routeLength="498.90" waitingTime="0.00" waitingCount="0" stopTime="0.00" timeLoss="10.35" rerouteNo="1" devices="tripinfo_from_south_left_turn_morning_peak.1 routing_from_south_left_turn_morning_peak.1" vType="truck" speedFactor="0.98" vaporized=""/>
    <tripinfo id="from_west_left_turn_morning_peak.0" depart="28801.00" departLane="263812623#1_0" departPos="2.30" departSpeed="0.00" departDelay="1.00" arrival="28878.00" arrivalLane="328349209#9_0" arrivalPos="20.69" arrivalSpeed="23.91" duration="77.00" routeLength="677.53" waitingTime="23.00" waitingCount="1" stopTime="0.00" timeLoss="36.37" rerouteNo="1" devices="tripinfo_from_west_left_turn_morning_peak.0 routing_from_west_left_turn_morning_peak.0" vType="motorcycle" speedFactor="0.96" vaporized=""/>
    <tripinfo id="emergency_fire_truck_east_morning_peak.0" depart="28809.00" departLane="1354145734#1_0" departPos="9.10" departSpeed="0.00" departDelay="9.00" arrival="28878.00" arrivalLane="1148421491#1_0" arrivalPos="44.65" arrivalSpeed="7.54" duration="69.00" routeLength="283.98" waitingTime="34.00" waitingCount="1" stopTime="0.00" timeLoss="52.08" rerouteNo="1" devices="tripinfo_emergency_fire_truck_east_morning_peak.0 routing_emergency_fire_truck_east_morning_peak.0" vType="fire_truck" speedFactor="1.00" vaporized=""/>
    <tripinfo id="from_south_left_turn_morning_peak.2" depart="28816.00" departLane="638541493#1_0" departPos="5.10" departSpeed="0.00" departDelay="0.48" arrival="28879.00" arrivalLane="638541495#2_0" arrivalPos="30.24" arrivalSpeed="8.21" duration="63.00" routeLength="501.00" waitingTime="0.00" waitingCount="0" stopTime="0.00" timeLoss="7.96" rerouteNo="1" devices="tripinfo_from_south_left_turn_morning_peak.2 routing_from_south_left_turn_morning_peak.2" vType="car" speedFactor="1.05" vaporized=""/>
    <tripinfo id="2" depart="28808.00" departLane="26284129#7_0" departPos="5.10" departSpeed="0.00" departDelay="0.80" arrival="28883.00" arrivalLane="213042766#5_0" arrivalPos="50.03" arrivalSpeed="14.49" duration="75.00" routeLength="1012.11" waitingTime="0.00" waitingCount="0" stopTime="0.00" timeLoss="16.55" rerouteNo="1" devices="tripinfo_2 routing_2" vType="DEFAULT_VEHTYPE" speedFactor="1.10" vaporized=""/>
    <tripinfo id="emergency_fire_truck_west_morning_peak.0" depart="28806.00" departLane="263812623#1_0" departPos="9.10" departSpeed="0.00" departDelay="6.00" arrival="28884.00" arrivalLane="328349209#9_0" arrivalPos="20.69" arrivalSpeed="26.91" duration="78.00" routeLength="670.73" waitingTime="20.00" waitingCount="1" stopTime="0.00" timeLoss="38.59" rerouteNo="1" devices="tripinfo_emergency_fire_truck_west_morning_peak.0 routing_emergency_fire_truck_west_morning_peak.0" vType="fire_truck" speedFactor="1.00" vaporized=""/>
    <tripinfo id="10" depart="28839.00" departLane="36257667#9_0" departPos="5.10" departSpeed="0.00" departDelay="3.00" arrival="28884.00" arrivalLane="213087089_0" arrivalPos="91.98" arrivalSpeed="13.99" duration="45.00" routeLength="437.32" waitingTime="0.00" waitingCount="0" stopTime="0.00" timeLoss="11.16" rerouteNo="1" devices="tripinfo_10 routing_10" vType="DEFAULT_VEHTYPE" speedFactor="1.02" vaporized=""/>
    <tripinfo id="from_south_right_turn_morning_peak.6" depart="28849.00" departLane="638541493#1_0" departPos="2.30" departSpeed="0.00" departDelay="2.45" arrival="28885.00" arrivalLane="638541497#1_1" arrivalPos="50.87" arrivalSpeed="26.40" duration="36.00" routeLength="162.04" waitingTime="16.00" waitingCount="1" stopTime="0.00" timeLoss="22.62" rerouteNo="1" devices="tripinfo_from_south_right_turn_morning_peak.6 routing_from_south_right_turn_morning_peak.6" vType="motorcycle" speedFactor="1.01" vaporized=""/>
    <tripinfo id="from_west_straight_morning_peak.0" depart="28800.00" departLane="263812623#1_0" departPos="2.30" departSpeed="0.00" departDelay="0.00" arrival="28886.00" arrivalLane="638541497#16_0" arrivalPos="109.58" arrivalSpeed="28.05" duration="86.00" routeLength="1048.79" waitingTime="26.00" waitingCount="1" stopTime="0.00" timeLoss="35.33" rerouteNo="1" devices="tripinfo_from_west_straight_morning_peak.0 routing_from_west_straight_morning_peak.0" vType="motorcycle" speedFactor="1.03" vaporized=""/>
    <tripinfo id="from_south_right_turn_morning_peak.7" depart="28858.00" departLane="638541493#1_0" departPos="5.10" departSpeed="0.00" departDelay="3.69" arrival="28887.00" arrivalLane="638541497#1_1" arrivalPos="50.87" arrivalSpeed="18.31" duration="29.00" routeLength="159.24" waitingTime="9.00" waitingCount="1" stopTime="0.00" timeLoss="17.67" rerouteNo="1" devices="tripinfo_from_south_right_turn_morning_peak.7 routing_from_south_right_turn_morning_peak.7" vType="auto" speedFactor="1.10" vaporized=""/>
    <tripinfo id="from_west_right_turn_morning_peak.0" depart="28803.00" departLane="263812623#1_0" departPos="5.10" departSpeed="0.00" departDelay="3.00" arrival="28888.00" arrivalLane="1148421491#1_0" arrivalPos="44.65" arrivalSpeed="7.90" duration="85.00" routeLength="498.83" waitingTime="30.00" waitingCount="2" stopTime="0.00" timeLoss="45.98" rerouteNo="1" devices="tripinfo_from_west_right_turn_morning_peak.0 routing_from_west_right_turn_morning_peak.0" vType="auto" speedFactor="1.00" vaporized=""/>
    <tripinfo id="from_south_right_turn_morning_peak.8" depart="28865.00" departLane="638541493#1_0" departPos="2.30" departSpeed="0.00" departDelay="2.94" arrival="28889.00" arrivalLane="638541497#1_1" arrivalPos="50.87" arrivalSpeed="27.23" duration="24.00" routeLength="162.04" waitingTime="3.00" waitingCount="1" stopTime="0.00" timeLoss="11.80" rerouteNo="1" devices="tripinfo_from_south_right_turn_morning_peak.8 routing_from_south_right_turn_morning_peak.8" vType="motorcycle" speedFactor="1.10" vaporized=""/>
    <tripinfo id="from_east_left_turn_morning_peak.1" depart="28821.00" departLane="1354145734#1_0" departPos="2.30" departSpeed="0.00" departDelay="14.63" arrival="28891.00" arrivalLane="1148421491#1_0" arrivalPos="44.65" arrivalSpeed="5.31" duration="70.00" routeLength="290.78" waitingTime="27.00" waitingCount="3" stopTime="0.00" timeLoss="52.00" rerouteNo="1" devices="tripinfo_from_east_left_turn_morning_peak.1 routing_from_east_left_turn_morning_peak.1" vType="motorcycle" speedFactor="0.96" vaporized=""/>
    <tripinfo id="from_east_right_turn_morning_peak.2" depart="28839.00" departLane="1354145734#1_0" departPos="2.30" departSpeed="0.00" departDelay="26.26" arrival="28891.00" arrivalLane="328349209#9_1" arrivalPos="20.69" arrivalSpeed="28.74" duration="52.00" routeLength="366.20" waitingTime="21.00" waitingCount="2" stopTime="0.00" timeLoss="38.44" rerouteNo="1" devices="tripinfo_from_east_right_turn_morning_peak.2 routing_from_east_right_turn_morning_peak.2" vType="motorcycle" speedFactor="1.05" vaporized=""/>
    <tripinfo id="emergency_ambulance_west_morning_peak.0" depart="28804.00" departLane="263812623#1_0" departPos="5.10" departSpeed="0.00" departDelay="4.00" arrival="28892.00" arrivalLane="638541497#16_1" arrivalPos="109.58" arrivalSpeed="27.41" duration="88.00" routeLength="1045.99" waitingTime="18.00" waitingCount="1" stopTime="0.00" timeLoss="35.57" rerouteNo="1" devices="tripinfo_emergency_ambulance_west_morning_peak.0 routing_emergency_ambulance_west_morning_peak.0" vType="ambulance" speedFactor="1.00" vaporized=""/>
    <tripinfo id="from_south_right_turn_morning_peak.9" depart="28873.00" departLane="638541493#1_0" departPos="2.30" departSpeed="0.00" departDelay="3.18" arrival="28893.00" arrivalLane="638541497#1_1" arrivalPos="50.87" arrivalSpeed="22.23" duration="20.00" routeLength="162.04" waitingTime="0.00" waitingCount="0" stopTime="0.00" timeLoss="5.45" rerouteNo="1" devices="tripinfo_from_south_right_turn_morning_peak.9 routing_from_south_right_turn_morning_peak.9" vType="motorcycle" speedFactor="0.90" vaporized=""/>
    <tripinfo id="from_west_straight_morning_peak.2" depart="28809.00" departLane="263812623#1_0" departPos="2.30" departSpeed="0.00" departDelay="6.62" arrival="28894.00" arrivalLane="638541497#16_1" arrivalPos="109.58" arrivalSpeed="26.46" duration="85.00" routeLength="1048.79" waitingTime="18.00" waitingCount="1" stopTime="0.00" timeLoss="33.48" rerouteNo="1" devices="tripinfo_from_west_straight_morning_peak.2 routing_from_west_straight_morning_peak.2" vType="motorcycle" speedFactor="1.03" vaporized=""/>
    <tripinfo id="from_west_straight_morning_peak.3" depart="28811.00" departLane="263812623#1_0" departPos="2.30" departSpeed="0.00" departDelay="7.42" arrival="28895.00" arrivalLane="638541497#16_1" arrivalPos="109.58" arrivalSpeed="29.97" duration="84.00" routeLength="1048.79" waitingTime="17.00" waitingCount="1" stopTime="0.00" timeLoss="35.28" rerouteNo="1" devices="tripinfo_from_west_straight_morning_peak.3 routing_from_west_straight_morning_peak.3" vType="motorcycle" speedFactor="1.08" vaporized=""/>
    <tripinfo id="11" depart="28840.00" departLane="-484510040#17_0" departPos="5.10" departSpeed="0.00" departDelay="0.40" arrival="28897.00" arrivalLane="-169711276#0_0" arrivalPos="9.15" arrivalSpeed="10.62" duration="57.00" routeLength="610.46" waitingTime="0.00" waitingCount="0" stopTime="0.00" timeLoss="19.31" rerouteNo="1" devices="tripinfo_11 routing_11" vType="DEFAULT_VEHTYPE" speedFactor="1.02" vaporized=""/>
    <tripinfo id="from_west_straight_morning_peak.1" depart="28808.00" departLane="263812623#1_0" departPos="2.30" departSpeed="0.00" departDelay="6.81" arrival="28898.00" arrivalLane="638541497#16_0" arrivalPos="109.58" arrivalSpeed="23.65" duration="90.00" routeLength="1048.79" waitingTime="17.00" waitingCount="1" stopTime="0.00" timeLoss="31.30" rerouteNo="1" devices="tripinfo_from_west_straight_morning_peak.1 routing_from_west_straight_morning_peak.1" vType="motorcycle" speedFactor="0.90" vaporized=""/>
    <tripinfo id="from_west_straight_morning_peak.5" depart="28815.00" departLane="263812623#1_0" departPos="5.10" departSpeed="0.00" departDelay="9.04" arrival="28898.00" arrivalLane="638541497#16_1" arrivalPos="109.58" arrivalSpeed="28.60" duration="83.00" routeLength="1045.99" waitingTime="13.00" waitingCount="2" stopTime="0.00" timeLoss="32.22" rerouteNo="1" devices="tripinfo_from_west_straight_morning_peak.5 routing_from_west_straight_morning_peak.5" vType="car" speedFactor="1.04" vaporized=""/>
    <tripinfo id="from_south_left_turn_morning_peak.3" depart="28824.00" departLane="638541493#1_0" departPos="2.30" departSpeed="0.00" departDelay="0.73" arrival="28899.00" arrivalLane="638541495#2_0" arrivalPos="30.24" arrivalSpeed="8.15" duration="75.00" routeLength="503.80" waitingTime="0.00" waitingCount="0" stopTime="0.00" timeLoss="16.96" rerouteNo="1" devices="tripinfo_from_south_left_turn_morning_peak.3 routing_from_south_left_turn_morning_peak.3" vType="motorcycle" speedFactor="0.98" vaporized=""/>
    <tripinfo id="from_south_right_turn_morning_peak.10" depart="28880.00" departLane="638541493#1_0" departPos="2.30" departSpeed="0.00" departDelay="2.42" arrival="28899.00" arrivalLane="638541497#1_1" arrivalPos="50.87" arrivalSpeed="26.14" duration="19.00" routeLength="162.04" waitingTime="1.00" waitingCount="1" stopTime="0.00" timeLoss="5.18" rerouteNo="1" devices="tripinfo_from_south_right_turn_morning_peak.10 routing_from_south_right_turn_morning_peak.10" vType="motorcycle" speedFactor="0.95" vaporized=""/>
    <tripinfo id="from_west_straight_morning_peak.4" depart="28813.00" departLane="263812623#1_0" departPos="5.10" departSpeed="0.00" departDelay="8.23" arrival="28900.00" arrivalLane="638541497#16_0" arrivalPos="109.58" arrivalSpeed="24.57" duration="87.00" routeLength="1045.99" waitingTime="13.00" waitingCount="1" stopTime="0.00" timeLoss="28.05" rerouteNo="1" devices="tripinfo_from_west_straight_morning_peak.4 routing_from_west_straight_morning_peak.4" vType="car" speedFactor="0.89" vaporized=""/>
    <tripinfo id="from_south_straight_morning_peak.2" depart="28870.00" departLane="638541493#1_0" departPos="2.30" departSpeed="0.00" departDelay="0.10" arrival="28900.00" arrivalLane="328349209#9_0" arrivalPos="20.69" arrivalSpeed="27.23" duration="30.00" routeLength="345.44" waitingTime="0.00" waitingCount="0" stopTime="0.00" timeLoss="10.65" rerouteNo="1" devices="tripinfo_from_south_straight_morning_peak.2 routing_from_south_straight_morning_peak.2" vType="motorcycle" speedFactor="1.04" vaporized=""/>
    <tripinfo id="from_east_right_turn_morning_peak.5" depart="28874.00" departLane="1354145734#1_0" departPos="2.30" departSpeed="0.00" departDelay="42.15" arrival="28903.00" arrivalLane="328349209#9_1" arrivalPos="20.69" arrivalSpeed="29.50" duration="29.00" routeLength="366.20" waitingTime="0.00" waitingCount="0" stopTime="0.00" timeLoss="15.57" rerouteNo="1" devices="tripinfo_from_east_right_turn_morning_peak.5 routing_from_east_right_turn_morning_peak.5" vType="motorcycle" speedFactor="1.07" vaporized=""/>
    <tripinfo id="from_south_left_turn_morning_peak.4" depart="28832.00" departLane="638541493#1_0" departPos="2.30" departSpeed="0.00" departDelay="0.97" arrival="28904.00" arrivalLane="638541495#2_0" arrivalPos="30.24" arrivalSpeed="8.38" duration="72.00" routeLength="503.80" waitingTime="0.00" waitingCount="0" stopTime="0.00" timeLoss="15.13" rerouteNo="1" devices="tripinfo_from_south_left_turn_morning_peak.4 routing_from_south_left_turn_morning_peak.4" vType="motorcycle" speedFactor="1.01" vaporized=""/>
    <tripinfo id="from_south_left_turn_morning_peak.6" depart="28847.00" departLane="638541493#1_0" departPos="5.10" departSpeed="0.00" departDelay="0.45" arrival="28904.00" arrivalLane="638541495#2_1" arrivalPos="30.24" arrivalSpeed="9.06" duration="57.00" routeLength="501.00" waitingTime="0.00" waitingCount="0" stopTime="0.00" timeLoss="8.56" rerouteNo="1" devices="tripinfo_from_south_left_turn_morning_peak.6 routing_from_south_left_turn_morning_peak.6" vType="car" speedFactor="1.19" vaporized=""/>
    <tripinfo id="from_east_right_turn_morning_peak.3" depart="28852.00" departLane="1354145734#1_0" departPos="2.30" departSpeed="0.00" departDelay="32.89" arrival="28908.00" arrivalLane="328349209#9_1" arrivalPos="20.69" arrivalSpeed="25.23" duration="56.00" routeLength="366.20" waitingTime="12.00" waitingCount="2" stopTime="0.00" timeLoss="40.85" rerouteNo="1" devices="tripinfo_from_east_right_turn_morning_peak.3 routing_from_east_right_turn_morning_peak.3" vType="motorcycle" speedFactor="0.99" vaporized=""/>
    <tripinfo id="1" depart="28804.00" departLane="-26284183#2_0" departPos="5.10" departSpeed="0.00" departDelay="0.40" arrival="28911.00" arrivalLane="-26284129#7_0" arrivalPos="40.68" arrivalSpeed="19.88" duration="107.00" routeLength="563.24" waitingTime="53.00" waitingCount="1" stopTime="0.00" timeLoss="73.42" rerouteNo="1" devices="tripinfo_1 routing_1" vType="DEFAULT_VEHTYPE" speedFactor="0.94" vaporized=""/>
    <tripinfo id="from_east_straight_morning_peak.0" depart="28800.00" departLane="1354145734#1_0" departPos="5.10" departSpeed="0.00" departDelay="0.00" arrival="28911.00" arrivalLane="638541495#1_0" arrivalPos="26.02" arrivalSpeed="8.90" duration="111.00" routeLength="627.14" waitingTime="42.00" waitingCount="1" stopTime="0.00" timeLoss="57.43" rerouteNo="1" devices="tripinfo_from_east_straight_morning_peak.0 routing_from_east_straight_morning_peak.0" vType="car" speedFactor="1.13" vaporized=""/>
    <tripinfo id="30" depart="28908.00" departLane="-37110889#1_0" departPos="5.10" departSpeed="0.00" departDelay="0.00" arrival="28911.00" arrivalLane="-37110889#1_0" arrivalPos="11.84" arrivalSpeed="5.16" duration="3.00" routeLength="6.74" waitingTime="0.00" waitingCount="0" stopTime="0.00" timeLoss="2.62" rerouteNo="1" devices="tripinfo_30 routing_30" vType="DEFAULT_VEHTYPE" speedFactor="1.19" vaporized=""/>
    <tripinfo id="from_south_left_turn_morning_peak.5" depart="28839.00" departLane="638541493#1_0" departPos="2.30" departSpeed="0.00" departDelay="0.21" arrival="28912.00" arrivalLane="638541495#2_0" arrivalPos="30.24" arrivalSpeed="6.45" duration="73.00" routeLength="503.80" waitingTime="0.00" waitingCount="0" stopTime="0.00" timeLoss="15.38" rerouteNo="1" devices="tripinfo_from_south_left_turn_morning_peak.5 routing_from_south_left_turn_morning_peak.5" vType="motorcycle" speedFactor="0.98" vaporized=""/>
    <tripinfo id="from_south_right_turn_morning_peak.11" depart="28889.00" departLane="638541493#1_0" departPos="12.10" departSpeed="0.00" departDelay="3.66" arrival="28912.00" arrivalLane="638541497#1_1" arrivalPos="50.87" arrivalSpeed="14.76" duration="23.00" routeLength="152.24" waitingTime="1.00" waitingCount="1" stopTime="0.00" timeLoss="11.27" rerouteNo="1" devices="tripinfo_from_south_right_turn_morning_peak.11 routing_from_south_right_turn_morning_peak.11" vType="bus" speedFactor="1.00" vaporized=""/>
    <tripinfo id="from_south_right_turn_morning_peak.12" depart="28896.00" departLane="638541493#1_0" departPos="2.30" departSpeed="0.00" departDelay="2.90" arrival="28914.00" arrivalLane="638541497#1_1" arrivalPos="50.87" arrivalSpeed="26.18" duration="18.00" routeLength="162.04" waitingTime="1.00" waitingCount="1" stopTime="0.00" timeLoss="5.37" rerouteNo="1" devices="tripinfo_from_south_right_turn_morning_peak.12 routing_from_south_right_turn_morning_peak.12" vType="motorcycle" speedFactor="1.04" vaporized=""/>
    <tripinfo id="emergency_ambulance_east_morning_peak.0" depart="28806.00" departLane="1354145734#1_0" departPos="5.10" departSpeed="0.00" departDelay="6.00" arrival="28918.00" arrivalLane="638541495#1_0" arrivalPos="26.02" arrivalSpeed="7.29" duration="112.00" routeLength="627.14" waitingTime="32.00" waitingCount="1" stopTime="0.00" timeLoss="51.77" rerouteNo="1" devices="tripinfo_emergency_ambulance_east_morning_peak.0 routing_emergency_ambulance_east_morning_peak.0" vType="ambulance" speedFactor="1.00" vaporized=""/>
    <tripinfo id="12" depart="28844.00" departLane="638541497#8_0" departPos="5.10" departSpeed="0.00" departDelay="0.80" arrival="28918.00" arrivalLane="-553250634#1_0" arrivalPos="19.11" arrivalSpeed="10.69" duration="74.00" routeLength="630.48" waitingTime="25.00" waitingCount="1" stopTime="0.00" timeLoss="48.46" rerouteNo="1" devices="tripinfo_12 routing_12" vType="DEFAULT_VEHTYPE" speedFactor="1.08" vaporized=""/>
    <tripinfo id="from_south_right_turn_morning_peak.13" depart="28902.00" departLane="638541493#1_0" departPos="2.30" departSpeed="0.00" departDelay="1.15" arrival="28920.00" arrivalLane="638541497#1_1" arrivalPos="50.87" arrivalSpeed="25.59" duration="18.00" routeLength="162.04" waitingTime="0.00" waitingCount="0" stopTime="0.00" timeLoss="5.13" rerouteNo="1" devices="tripinfo_from_south_right_turn_morning_peak.13 routing_from_south_right_turn_morning_peak.13" vType="motorcycle" speedFactor="1.04" vaporized=""/>
    <tripinfo id="from_east_straight_morning_peak.3" depart="28816.00" departLane="1354145734#1_0" departPos="5.10" departSpeed="0.00" departDelay="11.91" arrival="28929.00" arrivalLane="638541495#1_1" arrivalPos="26.02" arrivalSpeed="7.28" duration="113.00" routeLength="627.14" waitingTime="27.00" waitingCount="1" stopTime="0.00" timeLoss="54.11" rerouteNo="1" devices="tripinfo_from_east_straight_morning_peak.3 routing_from_east_straight_morning_peak.3" vType="auto" speedFactor="1.02" vaporized=""/>
    <tripinfo id="from_east_straight_morning_peak.1" depart="28811.00" departLane="1354145734#1_0" departPos="2.30" departSpeed="0.00" departDelay="9.64" arrival="28930.00" arrivalLane="638541495#1_0" arrivalPos="26.02" arrivalSpeed="7.16" duration="119.00" routeLength="629.94" waitingTime="30.00" waitingCount="1" stopTime="0.00" timeLoss="56.32" rerouteNo="1" devices="tripinfo_from_east_straight_morning_peak.1 routing_from_east_straight_morning_peak.1" vType="motorcycle" speedFactor="0.96" vaporized=""/>