<?xml version="1.0" encoding="UTF-8"?>

<!-- generated on 2026-02-07 00:08:37 by Eclipse SUMO sumo Version 1.24.0
<sumoConfiguration xmlns:xsi="http://www.w3.org/2001/XMLSchema-instance" xsi:noNamespaceSchemaLocation="http://sumo.dlr.de/xsd/sumoConfiguration.xsd">

    <input>
        <net-file value="SUMO_Trinity_Traffic_sim/osm.net.xml.gz"/>
        <route-files value="SUMO_Trinity_Traffic_sim/mg_road.rou.xml,SUMO_Trinity_Traffic_sim/ background.rou.xml"/>
        <additional-files value="SUMO_Trinity_Traffic_sim/osm.poly.xml.gz"/>
    </input>

    <output>
        <tripinfo-output value="SUMO_Trinity_Traffic_sim/tripinfo.xml"/>
    </output>

    <time>
        <begin value="28800.0"/>
        <step-length value="1.0"/>
    </time>

    <processing>
        <ignore-route-errors value="true"/>
        <tls.actuated.jam-threshold value="30"/>
    </processing>

    <routing>
        <device.rerouting.adaptation-steps value="18"/>
        <device.rerouting.adaptation-interval value="10"/>
    </routing>

    <report>
        <verbose value="true"/>
        <no-warnings value="true"/>
        <duration-log.statistics value="true"/>
        <no-step-log value="true"/>
    </report>

    <traci_server>
        <remote-port value="63682"/>
    </traci_server>

    <random_number>
        <seed value="1"/>
    </random_number>

    <gui_only>
        <gui-settings-file value="SUMO_Trinity_Traffic_sim/osm.view.xml"/>
        <quit-on-end value="true"/>
    </gui_only>

</sumoConfiguration>
-->

<tripinfos xmlns:xsi="http://www.w3.org/2001/XMLSchema-instance" xsi:noNamespaceSchemaLocation="http://sumo.dlr.de/xsd/tripinfo_file.xsd">
    <tripinfo id="from_east_left_turn_morning_peak.0" depart="28803.00" departLane="1354145734#1_0" departPos="5.10" departSpeed="0.00" departDelay="3.00" arrival="28830.00" arrivalLane="1148421491#1_0" arrivalPos="44.65" arrivalSpeed="8.14" duration="27.00" routeLength="287.98" waitingTime="0.00" waitingCount="0" stopTime="0.00" timeLoss="10.31" rerouteNo="1" devices="tripinfo_from_east_left_turn_morning_peak.0 routing_from_east_left_turn_morning_peak.0" vType="auto" speedFactor="1.02" vaporized=""/>
    <tripinfo id="from_east_right_turn_morning_peak.0" depart="28806.00" departLane="1354145734#1_0" departPos="5.10" departSpeed="0.00" departDelay="6.00" arrival="28837.00" arrivalLane="328349209#9_1" arrivalPos="20.69" arrivalSpeed="23.33" duration="31.00" routeLength="363.40" waitingTime="0.00" waitingCount="0" stopTime="0.00" timeLoss="13.69" rerouteNo="1" devices="tripinfo_from_east_right_turn_morning_peak.0 routing_from_east_right_turn_morning_peak.0" vType="auto" speedFactor="0.88" vaporized=""/>
    <tripinfo id="0" depart="28800.00" departLane="169709329#5_0" departPos="5.10" departSpeed="0.00" departDelay="0.00" arrival="28839.00" arrivalLane="-1103062099#1_0" arrivalPos="7.64" arrivalSpeed="9.85" duration="39.00" routeLength="124.30" waitingTime="0.00" waitingCount="0" stopTime="0.00" timeLoss="10.10" rerouteNo="1" devices="tripinfo_0 routing_0" vType="DEFAULT_VEHTYPE" speedFactor="0.92" vaporized=""/>
    <tripinfo id="emergency_fire_truck_east_morning_peak.0" depart="28813.00" departLane="1354145734#1_0" departPos="9.10" departSpeed="0.00" departDelay="13.00" arrival="28840.00" arrivalLane="1148421491#1_0" arrivalPos="44.65" arrivalSpeed="7.44" duration="27.00" routeLength="283.98" waitingTime="0.00" waitingCount="0" stopTime="0.00" timeLoss="10.34" rerouteNo="1" devices="tripinfo_emergency_fire_truck_east_morning_peak.0 routing_emergency_fire_truck_east_morning_peak.0" vType="fire_truck" speedFactor="1.00" vaporized=""/>
    <tripinfo id="from_west_straight_morning_peak.0" depart="28800.00" departLane="263812623#1_0" departPos="2.30" departSpeed="0.00" departDelay="0.00" arrival="28851.00" arrivalLane="638541497#16_0" arrivalPos="109.58" arrivalSpeed="29.53" duration="51.00" routeLength="1048.79" waitingTime="0.00" waitingCount="0" stopTime="0.00" timeLoss="5.64" rerouteNo="1" devices="tripinfo_from_west_straight_morning_peak.0 routing_from_west_straight_morning_peak.0" vType="motorcycle" speedFactor="1.16" vaporized=""/>
    <tripinfo id="from_west_left_turn_morning_peak.0" depart="28801.00" departLane="263812623#1_0" departPos="5.10" departSpeed="0.00" departDelay="1.00" arrival="28857.00" arrivalLane="328349209#9_0" arrivalPos="20.69" arrivalSpeed="26.31" duration="56.00" routeLength="674.73" waitingTime="0.00" waitingCount="0" stopTime="0.00" timeLoss="16.71" rerouteNo="1" devices="tripinfo_from_west_left_turn_morning_peak.0 routing_from_west_left_turn_morning_peak.0" vType="auto" speedFactor="1.01" vaporized=""/>
    <tripinfo id="from_south_right_turn_morning_peak.0" depart="28804.00" departLane="638541493#1_0" departPos="5.10" departSpeed="0.00" departDelay="4.00" arrival="28858.00" arrivalLane="638541497#1_1" arrivalPos="50.87" arrivalSpeed="20.04" duration="54.00" routeLength="159.24" waitingTime="32.00" waitingCount="1" stopTime="0.00" timeLoss="41.58" rerouteNo="1" devices="tripinfo_from_south_right_turn_morning_peak.0 routing_from_south_right_turn_morning_peak.0" vType="auto" speedFactor="1.05" vaporized=""/>
    <tripinfo id="3" depart="28811.00" departLane="491106117#3_0" departPos="5.10" departSpeed="0.00" departDelay="0.20" arrival="28858.00" arrivalLane="-132907566#1_0" arrivalPos="45.08" arrivalSpeed="9.27" duration="47.00" routeLength="342.86" waitingTime="0.00" waitingCount="0" stopTime="0.00" timeLoss="9.88" rerouteNo="1" devices="tripinfo_3 routing_3" vType="DEFAULT_VEHTYPE" speedFactor="0.76" vaporized=""/>
    <tripinfo id="from_east_right_turn_morning_peak.1" depart="28830.00" departLane="1354145734#1_0" departPos="5.10" departSpeed="0.00" departDelay="23.63" arrival="28858.00" arrivalLane="328349209#9_1" arrivalPos="20.69" arrivalSpeed="26.91" duration="28.00" routeLength="363.40" waitingTime="0.00" waitingCount="0" stopTime="0.00" timeLoss="13.72" rerouteNo="1" devices="tripinfo_from_east_right_turn_morning_peak.1 routing_from_east_right_turn_morning_peak.1" vType="auto" speedFactor="0.99" vaporized=""/>
    <tripinfo id="from_east_left_turn_morning_peak.1" depart="28827.00" departLane="1354145734#1_0" departPos="2.30" departSpeed="0.00" departDelay="20.63" arrival="28859.00" arrivalLane="1148421491#1_0" arrivalPos="44.65" arrivalSpeed="5.98" duration="32.00" routeLength="290.78" waitingTime="3.00" waitingCount="1" stopTime="0.00" timeLoss="15.72" rerouteNo="1" devices="tripinfo_from_east_left_turn_morning_peak.1 routing_from_east_left_turn_morning_peak.1" vType="motorcycle" speedFactor="1.07" vaporized=""/>
    <tripinfo id="emergency_ambulance_west_morning_peak.0" depart="28804.00" departLane="263812623#1_0" departPos="5.10" departSpeed="0.00" departDelay="4.00" arrival="28862.00" arrivalLane="638541497#16_0" arrivalPos="109.58" arrivalSpeed="26.77" duration="58.00" routeLength="1045.99" waitingTime="0.00" waitingCount="0" stopTime="0.00" timeLoss="5.69" rerouteNo="1" devices="tripinfo_emergency_ambulance_west_morning_peak.0 routing_emergency_ambulance_west_morning_peak.0" vType="ambulance" speedFactor="1.00" vaporized=""/>
    <tripinfo id="from_south_right_turn_morning_peak.1" depart="28809.00" departLane="638541493#1_0" departPos="2.30" departSpeed="0.00" departDelay="1.24" arrival="28862.00" arrivalLane="638541497#1_1" arrivalPos="50.87" arrivalSpeed="24.40" duration="53.00" routeLength="162.04" waitingTime="31.00" waitingCount="2" stopTime="0.00" timeLoss="39.43" rerouteNo="1" devices="tripinfo_from_south_right_turn_morning_peak.1 routing_from_south_right_turn_morning_peak.1" vType="motorcycle" speedFactor="0.95" vaporized=""/>
    <tripinfo id="from_south_straight_morning_peak.0" depart="28800.00" departLane="638541493#1_0" departPos="5.10" departSpeed="0.00" departDelay="0.00" arrival="28867.00" arrivalLane="328349209#9_0" arrivalPos="20.69" arrivalSpeed="26.85" duration="67.00" routeLength="342.64" waitingTime="35.00" waitingCount="1" stopTime="0.00" timeLoss="47.19" rerouteNo="1" devices="tripinfo_from_south_straight_morning_peak.0 routing_from_south_straight_morning_peak.0" vType="car" speedFactor="0.98" vaporized=""/>
    <tripinfo id="from_south_right_turn_morning_peak.2" depart="28820.00" departLane="638541493#1_0" departPos="12.10" departSpeed="0.00" departDelay="4.48" arrival="28867.00" arrivalLane="638541497#1_1" arrivalPos="50.87" arrivalSpeed="14.57" duration="47.00" routeLength="152.24" waitingTime="20.00" waitingCount="1" stopTime="0.00" timeLoss="35.16" rerouteNo="1" devices="tripinfo_from_south_right_turn_morning_peak.2 routing_from_south_right_turn_morning_peak.2" vType="bus" speedFactor="1.00" vaporized=""/>
    <tripinfo id="from_east_right_turn_morning_peak.2" depart="28843.00" departLane="1354145734#1_0" departPos="2.30" departSpeed="0.00" departDelay="30.26" arrival="28869.00" arrivalLane="328349209#9_1" arrivalPos="20.69" arrivalSpeed="22.70" duration="26.00" routeLength="366.20" waitingTime="0.00" waitingCount="0" stopTime="0.00" timeLoss="10.11" rerouteNo="1" devices="tripinfo_from_east_right_turn_morning_peak.2 routing_from_east_right_turn_morning_peak.2" vType="motorcycle" speedFactor="0.91" vaporized=""/>
    <tripinfo id="from_south_right_turn_morning_peak.3" depart="28827.00" departLane="638541493#1_0" departPos="5.10" departSpeed="0.00" departDelay="3.73" arrival="28869.00" arrivalLane="638541497#1_1" arrivalPos="50.87" arrivalSpeed="16.85" duration="42.00" routeLength="159.24" waitingTime="17.00" waitingCount="1" stopTime="0.00" timeLoss="30.08" rerouteNo="1" devices="tripinfo_from_south_right_turn_morning_peak.3 routing_from_south_right_turn_morning_peak.3" vType="car" speedFactor="1.05" vaporized=""/>
    <tripinfo id="from_south_left_turn_morning_peak.0" depart="28801.00" departLane="638541493#1_0" departPos="5.10" departSpeed="0.00" departDelay="1.00" arrival="28870.00" arrivalLane="638541495#2_0" arrivalPos="30.24" arrivalSpeed="7.87" duration="69.00" routeLength="501.00" waitingTime="0.00" waitingCount="0" stopTime="0.00" timeLoss="10.52" rerouteNo="1" devices="tripinfo_from_south_left_turn_morning_peak.0 routing_from_south_left_turn_morning_peak.0" vType="auto" speedFactor="0.97" vaporized=""/>
    <tripinfo id="from_south_right_turn_morning_peak.4" depart="28834.00" departLane="638541493#1_0" departPos="2.30" departSpeed="0.00" departDelay="2.97" arrival="28870.00" arrivalLane="638541497#1_1" arrivalPos="50.87" arrivalSpeed="20.76" duration="36.00" routeLength="162.04" waitingTime="14.00" waitingCount="1" stopTime="0.00" timeLoss="23.87" rerouteNo="1" devices="tripinfo_from_south_right_turn_morning_peak.4 routing_from_south_right_turn_morning_peak.4" vType="motorcycle" speedFactor="1.06" vaporized=""/>
    <tripinfo id="emergency_ambulance_south_morning_peak.0" depart="28805.00" departLane="638541493#1_0" departPos="5.10" departSpeed="0.00" departDelay="5.00" arrival="28871.00" arrivalLane="328349209#9_0" arrivalPos="20.69" arrivalSpeed="26.63" duration="66.00" routeLength="342.64" waitingTime="32.00" waitingCount="2" stopTime="0.00" timeLoss="47.00" rerouteNo="1" devices="tripinfo_emergency_ambulance_south_morning_peak.0 routing_emergency_ambulance_south_morning_peak.0" vType="ambulance" speedFactor="1.00" vaporized=""/>
    <tripinfo id="from_south_right_turn_morning_peak.5" depart="28841.00" departLane="638541493#1_0" departPos="2.30" departSpeed="0.00" departDelay="2.21" arrival="28878.00" arrivalLane="638541497#1_1" arrivalPos="50.87" arrivalSpeed="22.23" duration="37.00" routeLength="162.04" waitingTime="12.00" waitingCount="2" stopTime="0.00" timeLoss="23.19" rerouteNo="1" devices="tripinfo_from_south_right_turn_morning_peak.5 routing_from_south_right_turn_morning_peak.5" vType="motorcycle" speedFactor="0.94" vaporized=""/>
    <tripinfo id="7" depart="28826.00" departLane="169711262#3_0" departPos="5.10" departSpeed="0.00" departDelay="0.80" arrival="28879.00" arrivalLane="132907562#1_0" arrivalPos="14.25" arrivalSpeed="12.46" duration="53.00" routeLength="573.45" waitingTime="0.00" waitingCount="0" stopTime="0.00" timeLoss="11.88" rerouteNo="1" devices="tripinfo_7 routing_7" vType="DEFAULT_VEHTYPE" speedFactor="1.05" vaporized=""/>
    <tripinfo id="from_south_left_turn_morning_peak.2" depart="28816.00" departLane="638541493#1_0" departPos="5.10" departSpeed="0.00" departDelay="0.48" arrival="28880.00" arrivalLane="638541495#2_1" arrivalPos="30.24" arrivalSpeed="8.40" duration="64.00" routeLength="501.00" waitingTime="0.00" waitingCount="0" stopTime="0.00" timeLoss="10.08" rerouteNo="1" devices="tripinfo_from_south_left_turn_morning_peak.2 routing_from_south_left_turn_morning_peak.2" vType="auto" speedFactor="1.06" vaporized=""/>
    <tripinfo id="from_south_left_turn_morning_peak.1" depart="28808.00" departLane="638541493#1_0" departPos="2.30" departSpeed="0.00" departDelay="0.24" arrival="28881.00" arrivalLane="638541495#2_0" arrivalPos="30.24" arrivalSpeed="8.02" duration="73.00" routeLength="503.80" waitingTime="0.00" waitingCount="0" stopTime="0.00" timeLoss="15.76" rerouteNo="1" devices="tripinfo_from_south_left_turn_morning_peak.1 routing_from_south_left_turn_morning_peak.1" vType="motorcycle" speedFactor="0.99" vaporized=""/>
    <tripinfo id="from_south_right_turn_morning_peak.6" depart="28849.00" departLane="638541493#1_0" departPos="2.30" departSpeed="0.00" departDelay="2.45" arrival="28881.00" arrivalLane="638541497#1_1" arrivalPos="50.87" arrivalSpeed="23.81" duration="32.00" routeLength="162.04" waitingTime="6.00" waitingCount="2" stopTime="0.00" timeLoss="17.49" rerouteNo="1" devices="tripinfo_from_south_right_turn_morning_peak.6 routing_from_south_right_turn_morning_peak.6" vType="motorcycle" speedFactor="0.94" vaporized=""/>
    <tripinfo id="from_east_straight_morning_peak.0" depart="28800.00" departLane="1354145734#1_0" departPos="5.10" departSpeed="0.00" departDelay="0.00" arrival="28883.00" arrivalLane="638541495#1_0" arrivalPos="26.02" arrivalSpeed="6.90" duration="83.00" routeLength="627.14" waitingTime="0.00" waitingCount="0" stopTime="0.00" timeLoss="12.60" rerouteNo="1" devices="tripinfo_from_east_straight_morning_peak.0 routing_from_east_straight_morning_peak.0" vType="car" speedFactor="0.86" vaporized=""/>
    <tripinfo id="10" depart="28836.00" departLane="36257667#9_0" departPos="5.10" departSpeed="0.00" departDelay="0.00" arrival="28883.00" arrivalLane="213087089_0" arrivalPos="91.98" arrivalSpeed="11.37" duration="47.00" routeLength="437.32" waitingTime="0.00" waitingCount="0" stopTime="0.00" timeLoss="9.08" rerouteNo="1" devices="tripinfo_10 routing_10" vType="DEFAULT_VEHTYPE" speedFactor="0.90" vaporized=""/>
    <tripinfo id="from_south_right_turn_morning_peak.7" depart="28860.00" departLane="638541493#1_0" departPos="5.10" departSpeed="0.00" departDelay="5.69" arrival="28883.00" arrivalLane="638541497#1_1" arrivalPos="50.87" arrivalSpeed="19.27" duration="23.00" routeLength="159.24" waitingTime="2.00" waitingCount="1" stopTime="0.00" timeLoss="10.71" rerouteNo="1" devices="tripinfo_from_south_right_turn_morning_peak.7 routing_from_south_right_turn_morning_peak.7" vType="auto" speedFactor="1.05" vaporized=""/>
    <tripinfo id="emergency_ambulance_east_morning_peak.0" depart="28809.00" departLane="1354145734#1_0" departPos="5.10" departSpeed="0.00" departDelay="9.00" arrival="28885.00" arrivalLane="638541495#1_0" arrivalPos="26.02" arrivalSpeed="7.09" duration="76.00" routeLength="627.14" waitingTime="0.00" waitingCount="0" stopTime="0.00" timeLoss="15.78" rerouteNo="1" devices="tripinfo_emergency_ambulance_east_morning_peak.0 routing_emergency_ambulance_east_morning_peak.0" vType="ambulance" speedFactor="1.00" vaporized=""/>
    <tripinfo id="from_south_straight_morning_peak.1" depart="28835.00" departLane="638541493#1_0" departPos="5.10" departSpeed="0.00" departDelay="0.05" arrival="28885.00" arrivalLane="328349209#9_0" arrivalPos="20.69" arrivalSpeed="26.70" duration="50.00" routeLength="342.64" waitingTime="12.00" waitingCount="1" stopTime="0.00" timeLoss="30.58" rerouteNo="1" devices="tripinfo_from_south_straight_morning_peak.1 routing_from_south_straight_morning_peak.1" vType="car" speedFactor="1.01" vaporized=""/>
    <tripinfo id="from_east_straight_morning_peak.2" depart="28818.00" departLane="1354145734#1_0" departPos="2.30" departSpeed="0.00" departDelay="15.27" arrival="28887.00" arrivalLane="638541495#1_0" arrivalPos="26.02" arrivalSpeed="9.01" duration="69.00" routeLength="629.94" waitingTime="0.00" waitingCount="0" stopTime="0.00" timeLoss="17.68" rerouteNo="1" devices="tripinfo_from_east_straight_morning_peak.2 routing_from_east_straight_morning_peak.2" vType="motorcycle" speedFactor="1.18" vaporized=""/>
    <tripinfo id="from_east_straight_morning_peak.4" depart="28823.00" departLane="1354145734#1_0" departPos="5.10" departSpeed="0.00" departDelay="17.54" arrival="28887.00" arrivalLane="638541495#1_1" arrivalPos="26.02" arrivalSpeed="8.99" duration="64.00" routeLength="627.14" waitingTime="0.00" waitingCount="0" stopTime="0.00" timeLoss="13.04" rerouteNo="1" devices="tripinfo_from_east_straight_morning_peak.4 routing_from_east_straight_morning_peak.4" vType="car" speedFactor="1.19" vaporized=""/>
    <tripinfo id="emergency_ambulance_south_morning_peak.1" depart="28854.00" departLane="638541493#1_0" departPos="5.10" departSpeed="0.00" departDelay="0.00" arrival="28888.00" arrivalLane="328349209#9_0" arrivalPos="20.69" arrivalSpeed="27.21" duration="34.00" routeLength="342.64" waitingTime="0.00" waitingCount="0" stopTime="0.00" timeLoss="14.50" rerouteNo="1" devices="tripinfo_emergency_ambulance_south_morning_peak.1 routing_emergency_ambulance_south_morning_peak.1" vType="ambulance" speedFactor="1.00" vaporized=""/>
    <tripinfo id="from_east_right_turn_morning_peak.3" depart="28860.00" departLane="1354145734#1_0" departPos="2.30" departSpeed="0.00" departDelay="40.89" arrival="28889.00" arrivalLane="328349209#9_1" arrivalPos="20.69" arrivalSpeed="29.17" duration="29.00" routeLength="366.20" waitingTime="0.00" waitingCount="0" stopTime="0.00" timeLoss="15.35" rerouteNo="1" devices="tripinfo_from_east_right_turn_morning_peak.3 routing_from_east_right_turn_morning_peak.3" vType="motorcycle" speedFactor="1.05" vaporized=""/>
    <tripinfo id="from_south_right_turn_morning_peak.8" depart="28870.00" departLane="638541493#1_0" departPos="12.10" departSpeed="0.00" departDelay="7.94" arrival="28889.00" arrivalLane="638541497#1_1" arrivalPos="50.87" arrivalSpeed="15.07" duration="19.00" routeLength="152.24" waitingTime="0.00" waitingCount="0" stopTime="0.00" timeLoss="7.49" rerouteNo="1" devices="tripinfo_from_south_right_turn_morning_peak.8 routing_from_south_right_turn_morning_peak.8" vType="bus" speedFactor="1.00" vaporized=""/>
    <tripinfo id="from_south_left_turn_morning_peak.3" depart="28824.00" departLane="638541493#1_0" departPos="5.10" departSpeed="0.00" departDelay="0.73" arrival="28890.00" arrivalLane="638541495#2_1" arrivalPos="30.24" arrivalSpeed="8.18" duration="66.00" routeLength="501.00" waitingTime="0.00" waitingCount="0" stopTime="0.00" timeLoss="9.46" rerouteNo="1" devices="tripinfo_from_south_left_turn_morning_peak.3 routing_from_south_left_turn_morning_peak.3" vType="car" speedFactor="1.01" vaporized=""/>
    <tripinfo id="from_east_straight_morning_peak.1" depart="28816.00" departLane="1354145734#1_0" departPos="5.10" departSpeed="0.00" departDelay="14.64" arrival="28891.00" arrivalLane="638541495#1_0" arrivalPos="26.02" arrivalSpeed="6.86" duration="75.00" routeLength="627.14" waitingTime="0.00" waitingCount="0" stopTime="0.00" timeLoss="13.53" rerouteNo="1" devices="tripinfo_from_east_straight_morning_peak.1 routing_from_east_straight_morning_peak.1" vType="auto" speedFactor="0.97" vaporized=""/>
    <tripinfo id="2" depart="28808.00" departLane="26284129#7_0" departPos="5.10" departSpeed="0.00" departDelay="0.80" arrival="28895.00" arrivalLane="213042766#5_0" arrivalPos="50.03" arrivalSpeed="13.45" duration="87.00" routeLength="1012.11" waitingTime="6.00" waitingCount="1" stopTime="0.00" timeLoss="24.69" rerouteNo="1" devices="tripinfo_2 routing_2" vType="DEFAULT_VEHTYPE" speedFactor="1.01" vaporized=""/>
    <tripinfo id="11" depart="28840.00" departLane="-484510040#17_0" departPos="5.10" departSpeed="0.00" departDelay="0.40" arrival="28897.00" arrivalLane="-169711276#0_0" arrivalPos="9.15" arrivalSpeed="12.72" duration="57.00" routeLength="610.46" waitingTime="0.00" waitingCount="0" stopTime="0.00" timeLoss="17.48" rerouteNo="1" devices="tripinfo_11 routing_11" vType="DEFAULT_VEHTYPE" speedFactor="0.97" vaporized=""/>
    <tripinfo id="from_east_straight_morning_peak.3" depart="28820.00" departLane="1354145734#1_0" departPos="2.30" departSpeed="0.00" departDelay="15.91" arrival="28897.00" arrivalLane="638541495#1_0" arrivalPos="26.02" arrivalSpeed="8.13" duration="77.00" routeLength="629.94" waitingTime="0.00" waitingCount="0" stopTime="0.00" timeLoss="18.56" rerouteNo="1" devices="tripinfo_from_east_straight_morning_peak.3 routing_from_east_straight_morning_peak.3" vType="motorcycle" speedFactor="1.03" vaporized=""/>
    <tripinfo id="from_south_left_turn_morning_peak.4" depart="28832.00" departLane="638541493#1_0" departPos="5.10" departSpeed="0.00" departDelay="0.97" arrival="28902.00" arrivalLane="638541495#2_1" arrivalPos="30.24" arrivalSpeed="8.42" duration="70.00" routeLength="501.00" waitingTime="1.00" waitingCount="1" stopTime="0.00" timeLoss="13.95" rerouteNo="1" devices="tripinfo_from_south_left_turn_morning_peak.4 routing_from_south_left_turn_morning_peak.4" vType="auto" speedFactor="1.03" vaporized=""/>
    <tripinfo id="from_south_straight_morning_peak.2" depart="28871.00" departLane="638541493#1_0" departPos="2.30" departSpeed="0.00" departDelay="1.10" arrival="28903.00" arrivalLane="328349209#9_0" arrivalPos="20.69" arrivalSpeed="22.82" duration="32.00" routeLength="345.44" waitingTime="1.00" waitingCount="1" stopTime="0.00" timeLoss="9.96" rerouteNo="1" devices="tripinfo_from_south_straight_morning_peak.2 routing_from_south_straight_morning_peak.2" vType="motorcycle" speedFactor="0.91" vaporized=""/>
    <tripinfo id="emergency_fire_truck_west_morning_peak.0" depart="28805.00" departLane="263812623#1_0" departPos="9.10" departSpeed="0.00" departDelay="5.00" arrival="28911.00" arrivalLane="328349209#9_0" arrivalPos="20.69" arrivalSpeed="27.35" duration="106.00" routeLength="670.73" waitingTime="46.00" waitingCount="1" stopTime="0.00" timeLoss="67.31" rerouteNo="1" devices="tripinfo_emergency_fire_truck_west_morning_peak.0 routing_emergency_fire_truck_west_morning_peak.0" vType="fire_truck" speedFactor="1.00" vaporized=""/>
    <tripinfo id="30" depart="28908.00" departLane="-37110889#1_0" departPos="5.10" departSpeed="0.00" departDelay="0.00" arrival="28911.00" arrivalLane="-37110889#1_0" arrivalPos="11.84" arrivalSpeed="6.29" duration="3.00" routeLength="6.74" waitingTime="0.00" waitingCount="0" stopTime="0.00" timeLoss="2.43" rerouteNo="1" devices="tripinfo_30 routing_30" vType="DEFAULT_VEHTYPE" speedFactor="1.01" vaporized=""/>
    <tripinfo id="from_east_left_turn_morning_peak.2" depart="28840.00" departLane="1354145734#1_0" departPos="5.10" departSpeed="0.00" departDelay="27.26" arrival="28911.00" arrivalLane="1148421491#1_0" arrivalPos="44.65" arrivalSpeed="5.41" duration="71.00" routeLength="287.98" waitingTime="34.00" waitingCount="1" stopTime="0.00" timeLoss="49.57" rerouteNo="1" devices="tripinfo_from_east_left_turn_morning_peak.2 routing_from_east_left_turn_morning_peak.2" vType="car" speedFactor="0.79" vaporized=""/>
    <tripinfo id="1" depart="28804.00" departLane="-26284183#2_0" departPos="5.10" departSpeed="0.00" departDelay="0.40" arrival="28912.00" arrivalLane="-26284129#7_0" arrivalPos="40.68" arrivalSpeed="19.16" duration="108.00" routeLength="563.24" waitingTime="52.00" waitingCount="1" stopTime="0.00" timeLoss="71.88" rerouteNo="1" devices="tripinfo_1 routing_1" vType="DEFAULT_VEHTYPE" speedFactor="0.88" vaporized=""/>
    <tripinfo id="from_west_left_turn_morning_peak.1" depart="28815.00" departLane="263812623#1_0" departPos="2.30" departSpeed="0.00" departDelay="9.44" arrival="28914.00" arrivalLane="328349209#9_0" arrivalPos="20.69" arrivalSpeed="30.09" duration="99.00" routeLength="677.53" waitingTime="37.00" waitingCount="1" stopTime="0.00" timeLoss="65.71" rerouteNo="1" devices="tripinfo_from_west_left_turn_morning_peak.1 routing_from_west_left_turn_morning_peak.1" vType="motorcycle" speedFactor="1.19" vaporized=""/>
    <tripinfo id="from_east_left_turn_morning_peak.3" depart="28858.00" departLane="1354145734#1_0" departPos="2.30" departSpeed="0.00" departDelay="38.89" arrival="28914.00" arrivalLane="1148421491#1_0" arrivalPos="44.65" arrivalSpeed="6.66" duration="56.00" routeLength="290.78" waitingTime="23.00" waitingCount="1" stopTime="0.00" timeLoss="39.13" rerouteNo="1" devices="tripinfo_from_east_left_turn_morning_peak.3 routing_from_east_left_turn_morning_peak.3" vType="motorcycle" speedFactor="1.02" vaporized=""/>
    <tripinfo id="from_west_straight_morning_peak.1" depart="28808.00" departLane="263812623#1_0" departPos="2.30" departSpeed="0.00" departDelay="6.81" arrival="28915.00" arrivalLane="638541497#16_1" arrivalPos="109.58" arrivalSpeed="31.72" duration="107.00" routeLength="1048.79" waitingTime="47.00" waitingCount="1" stopTime="0.00" timeLoss="62.72" rerouteNo="1" devices="tripinfo_from_west_straight_morning_peak.1 routing_from_west_straight_morning_peak.1" vType="motorcycle" speedFactor="1.19" vaporized=""/>
    <tripinfo id="from_west_straight_morning_peak.2" depart="28810.00" departLane="263812623#1_0" departPos="2.30" departSpeed="0.00" departDelay="7.62" arrival="28918.00" arrivalLane="638541497#16_1" arrivalPos="109.58" arrivalSpeed="28.29" duration="108.00" routeLength="1048.79" waitingTime="46.00" waitingCount="1" stopTime="0.00" timeLoss="59.60" rerouteNo="1" devices="tripinfo_from_west_straight_morning_peak.2 routing_from_west_straight_morning_peak.2" vType="motorcycle" speedFactor="1.08" vaporized=""/>
    <tripinfo id="12" depart="28848.00" departLane="638541497#8_0" departPos="5.10" departSpeed="0.00" departDelay="4.80" arrival="28918.00" arrivalLane="-553250634#1_0" arrivalPos="19.11" arrivalSpeed="8.89" duration="70.00" routeLength="630.48" waitingTime="21.00" waitingCount="1" stopTime="0.00" timeLoss="42.76" rerouteNo="1" devices="tripinfo_12 routing_12" vType="DEFAULT_VEHTYPE" speedFactor="0.98" vaporized=""/>
    <tripinfo id="from_south_left_turn_morning_peak.5" depart="28839.00" departLane="638541493#1_0" departPos="5.10" departSpeed="0.00" departDelay="0.21" arrival="28918.00" arrivalLane="638541495#2_0" arrivalPos="30.24" arrivalSpeed="6.26" duration="79.00" routeLength="501.00" waitingTime="0.00" waitingCount="0" stopTime="0.00" timeLoss="10.93" rerouteNo="1" devices="tripinfo_from_south_left_turn_morning_peak.5 routing_from_south_left_turn_morning_peak.5" vType="car" speedFactor="0.84" vaporized=""/>
    <tripinfo id="from_south_left_turn_morning_peak.6" depart="28847.00" departLane="638541493#1_0" departPos="5.10" departSpeed="0.00" departDelay="0.45" arrival="28920.00" arrivalLane="638541495#2_0" arrivalPos="30.24" arrivalSpeed="7.06" duration="73.00" routeLength="501.00" waitingTime="0.00" waitingCount="0" stopTime="0.00" timeLoss="13.57" rerouteNo="1" devices="tripinfo_from_south_left_turn_morning_peak.6 routing_from_south_left_turn_morning_peak.6" vType="auto" speedFactor="0.96" vaporized=""/>
    <tripinfo id="from_west_straight_morning_peak.4" depart="28812.00" departLane="263812623#1_0" departPos="5.10" departSpeed="0.00" departDelay="7.23" arrival="28921.00" arrivalLane="638541497#16_0" arrivalPos="109.58" arrivalSpeed="30.44" duration="109.00" routeLength="1045.99" waitingTime="43.00" waitingCount="2" stopTime="0.00" timeLoss="62.94" rerouteNo="1" devices="tripinfo_from_west_straight_morning_peak.4 routing_from_west_straight_morning_peak.4" vType="car" speedFactor="1.14" vaporized=""/>
    <tripinfo id="from_west_left_turn_morning_peak.2" depart="28829.00" departLane="263812623#1_0" departPos="2.30" departSpeed="0.00" departDelay="17.87" arrival="28922.00" arrivalLane="328349209#9_0" arrivalPos="20.69" arrivalSpeed="23.09" duration="93.00" routeLength="677.53" waitingTime="32.00" waitingCount="1" stopTime="0.00" timeLoss="49.20" rerouteNo="1" devices="tripinfo_from_west_left_turn_morning_peak.2 routing_from_west_left_turn_morning_peak.2" vType="motorcycle" speedFactor="0.91" vaporized=""/>
    <tripinfo id="from_west_straight_morning_peak.5" depart="28814.00" departLane="263812623#1_0" departPos="5.10" departSpeed="0.00" departDelay="8.04" arrival="28924.00" arrivalLane="638541497#16_0" arrivalPos="109.58" arrivalSpeed="27.53" duration="110.00" routeLength="1045.99" waitingTime="44.00" waitingCount="1" stopTime="0.00" timeLoss="56.94" rerouteNo="1" devices="tripinfo_from_west_straight_morning_peak.5 routing_from_west_straight_morning_peak.5" vType="car" speedFactor="1.00" vaporized=""/>
    <tripinfo id="from_east_left_turn_morning_peak.4" depart="28874.00" departLane="1354145734#1_0" departPos="5.10" departSpeed="0.00" departDelay="48.52" arrival="28927.00" arrivalLane="1148421491#1_0" arrivalPos="44.65" arrivalSpeed="7.32" duration="53.00" routeLength="287.98" waitingTime="13.00" waitingCount="1" stopTime="0.00" timeLoss="35.46" rerouteNo="1" devices="tripinfo_from_east_left_turn_morning_peak.4 routing_from_east_left_turn_morning_peak.4" vType="auto" speedFactor="1.01" vaporized=""/>