<?xml version="1.0" encoding="UTF-8"?>

<!-- generated on 2026-02-06 22:44:01 by Eclipse SUMO sumo Version 1.24.0
<sumoConfiguration xmlns:xsi="http://www.w3.org/2001/XMLSchema-instance" xsi:noNamespaceSchemaLocation="http://sumo.dlr.de/xsd/sumoConfiguration.xsd">

    <input>
        <net-file value="SUMO_Trinity_Traffic_sim/osm.net.xml.gz"/>
        <route-files value="SUMO_Trinity_Traffic_sim/mg_road.rou.xml,SUMO_Trinity_Traffic_sim/ background.rou.xml"/>
        <additional-files value="SUMO_Trinity_Traffic_sim/osm.poly.xml.gz"/>
    </input>

    <output>
        <tripinfo-output value="SUMO_Trinity_Traffic_sim/tripinfo.xml"/>
    </output>

    <time>
        <begin value="28800.0"/>
        <step-length value="1.0"/>
    </time>

    <processing>
        <ignore-route-errors value="true"/>
        <tls.actuated.jam-threshold value="30"/>
    </processing>

    <routing>
        <device.rerouting.adaptation-steps value="18"/>
        <device.rerouting.adaptation-interval value="10"/>
    </routing>

    <report>
        <verbose value="true"/>
        <no-warnings value="true"/>
        <duration-log.statistics value="true"/>
        <no-step-log value="true"/>
    </report>

    <traci_server>
        <remote-port value="62423"/>
    </traci_server>

    <random_number>
        <seed value="25"/>
    </random_number>

    <gui_only>
        <gui-settings-file value="SUMO_Trinity_Traffic_sim/osm.view.xml"/>
        <quit-on-end value="true"/>
    </gui_only>

</sumoConfiguration>
-->

<tripinfos xmlns:xsi="http://www.w3.org/2001/XMLSchema-instance" xsi:noNamespaceSchemaLocation="http://sumo.dlr.de/xsd/tripinfo_file.xsd">
    <tripinfo id="from_south_right_turn_morning_peak.0" depart="28803.00" departLane="638541493#1_0" departPos="2.30" departSpeed="0.00" departDelay="3.00" arrival="28825.00" arrivalLane="638541497#1_1" arrivalPos="50.87" arrivalSpeed="21.61" duration="22.00" routeLength="162.04" waitingTime="0.00" waitingCount="0" stopTime="0.00" timeLoss="6.24" rerouteNo="1" devices="tripinfo_from_south_right_turn_morning_peak.0 routing_from_south_right_turn_morning_peak.0" vType="motorcycle" speedFactor="0.84" vaporized=""/>
    <tripinfo id="from_south_right_turn_morning_peak.1" depart="28810.00" departLane="638541493#1_0" departPos="5.10" departSpeed="0.00" departDelay="2.24" arrival="28830.00" arrivalLane="638541497#1_1" arrivalPos="50.87" arrivalSpeed="18.46" duration="20.00" routeLength="159.24" waitingTime="0.00" waitingCount="0" stopTime="0.00" timeLoss="5.07" rerouteNo="1" devices="tripinfo_from_south_right_turn_morning_peak.1 routing_from_south_right_turn_morning_peak.1" vType="car" speedFactor="0.85" vaporized=""/>
    <tripinfo id="from_south_straight_morning_peak.0" depart="28800.00" departLane="638541493#1_0" departPos="5.10" departSpeed="0.00" departDelay="0.00" arrival="28832.00" arrivalLane="328349209#9_0" arrivalPos="20.69" arrivalSpeed="23.40" duration="32.00" routeLength="342.64" waitingTime="0.00" waitingCount="0" stopTime="0.00" timeLoss="10.28" rerouteNo="1" devices="tripinfo_from_south_straight_morning_peak.0 routing_from_south_straight_morning_peak.0" vType="car" speedFactor="0.86" vaporized=""/>
    <tripinfo id="from_east_right_turn_morning_peak.0" depart="28803.00" departLane="1354145734#1_0" departPos="5.10" departSpeed="0.00" departDelay="3.00" arrival="28833.00" arrivalLane="328349209#9_1" arrivalPos="20.69" arrivalSpeed="22.61" duration="30.00" routeLength="363.40" waitingTime="0.00" waitingCount="0" stopTime="0.00" timeLoss="13.60" rerouteNo="1" devices="tripinfo_from_east_right_turn_morning_peak.0 routing_from_east_right_turn_morning_peak.0" vType="car" speedFactor="0.86" vaporized=""/>
    <tripinfo id="from_south_right_turn_morning_peak.2" depart="28819.00" departLane="638541493#1_0" departPos="5.10" departSpeed="0.00" departDelay="3.48" arrival="28837.00" arrivalLane="638541497#1_1" arrivalPos="50.87" arrivalSpeed="17.60" duration="18.00" routeLength="159.24" waitingTime="0.00" waitingCount="0" stopTime="0.00" timeLoss="4.45" rerouteNo="1" devices="tripinfo_from_south_right_turn_morning_peak.2 routing_from_south_right_turn_morning_peak.2" vType="auto" speedFactor="0.95" vaporized=""/>
    <tripinfo id="emergency_ambulance_south_morning_peak.0" depart="28804.00" departLane="638541493#1_0" departPos="5.10" departSpeed="0.00" departDelay="4.00" arrival="28838.00" arrivalLane="328349209#9_0" arrivalPos="20.69" arrivalSpeed="26.92" duration="34.00" routeLength="342.64" waitingTime="1.00" waitingCount="1" stopTime="0.00" timeLoss="14.55" rerouteNo="1" devices="tripinfo_emergency_ambulance_south_morning_peak.0 routing_emergency_ambulance_south_morning_peak.0" vType="ambulance" speedFactor="1.00" vaporized=""/>
    <tripinfo id="0" depart="28800.00" departLane="169709329#5_0" departPos="5.10" departSpeed="0.00" departDelay="0.00" arrival="28839.00" arrivalLane="-1103062099#1_0" arrivalPos="7.64" arrivalSpeed="11.12" duration="39.00" routeLength="124.30" waitingTime="0.00" waitingCount="0" stopTime="0.00" timeLoss="10.87" rerouteNo="1" devices="tripinfo_0 routing_0" vType="DEFAULT_VEHTYPE" speedFactor="0.95" vaporized=""/>
    <tripinfo id="from_south_right_turn_morning_peak.3" depart="28828.00" departLane="638541493#1_0" departPos="5.10" departSpeed="0.00" departDelay="4.73" arrival="28845.00" arrivalLane="638541497#1_1" arrivalPos="50.87" arrivalSpeed="18.72" duration="17.00" routeLength="159.24" waitingTime="0.00" waitingCount="0" stopTime="0.00" timeLoss="4.38" rerouteNo="1" devices="tripinfo_from_south_right_turn_morning_peak.3 routing_from_south_right_turn_morning_peak.3" vType="auto" speedFactor="0.99" vaporized=""/>
    <tripinfo id="3" depart="28811.00" departLane="491106117#3_0" departPos="5.10" departSpeed="0.00" departDelay="0.20" arrival="28847.00" arrivalLane="-132907566#1_0" arrivalPos="45.08" arrivalSpeed="14.08" duration="36.00" routeLength="342.86" waitingTime="0.00" waitingCount="0" stopTime="0.00" timeLoss="12.62" rerouteNo="1" devices="tripinfo_3 routing_3" vType="DEFAULT_VEHTYPE" speedFactor="1.20" vaporized=""/>
    <tripinfo id="from_east_right_turn_morning_peak.1" depart="28822.00" departLane="1354145734#1_0" departPos="5.10" departSpeed="0.00" departDelay="15.63" arrival="28853.00" arrivalLane="328349209#9_1" arrivalPos="20.69" arrivalSpeed="27.08" duration="31.00" routeLength="363.40" waitingTime="0.00" waitingCount="0" stopTime="0.00" timeLoss="16.55" rerouteNo="1" devices="tripinfo_from_east_right_turn_morning_peak.1 routing_from_east_right_turn_morning_peak.1" vType="auto" speedFactor="0.99" vaporized=""/>
    <tripinfo id="from_east_left_turn_morning_peak.0" depart="28802.00" departLane="1354145734#1_0" departPos="2.30" departSpeed="0.00" departDelay="2.00" arrival="28864.00" arrivalLane="1148421491#1_0" arrivalPos="44.65" arrivalSpeed="9.94" duration="62.00" routeLength="290.78" waitingTime="32.00" waitingCount="1" stopTime="0.00" timeLoss="47.67" rerouteNo="1" devices="tripinfo_from_east_left_turn_morning_peak.0 routing_from_east_left_turn_morning_peak.0" vType="motorcycle" speedFactor="1.24" vaporized=""/>
    <tripinfo id="from_south_left_turn_morning_peak.0" depart="28801.00" departLane="638541493#1_0" departPos="5.10" departSpeed="0.00" departDelay="1.00" arrival="28864.00" arrivalLane="638541495#2_0" arrivalPos="30.24" arrivalSpeed="7.42" duration="63.00" routeLength="501.00" waitingTime="0.00" waitingCount="0" stopTime="0.00" timeLoss="8.24" rerouteNo="1" devices="tripinfo_from_south_left_turn_morning_peak.0 routing_from_south_left_turn_morning_peak.0" vType="auto" speedFactor="1.03" vaporized=""/>
    <tripinfo id="from_east_right_turn_morning_peak.2" depart="28832.00" departLane="1354145734#1_0" departPos="5.10" departSpeed="0.00" departDelay="19.26" arrival="28865.00" arrivalLane="328349209#9_1" arrivalPos="20.69" arrivalSpeed="29.51" duration="33.00" routeLength="363.40" waitingTime="0.00" waitingCount="0" stopTime="0.00" timeLoss="19.56" rerouteNo="1" devices="tripinfo_from_east_right_turn_morning_peak.2 routing_from_east_right_turn_morning_peak.2" vType="car" speedFactor="1.10" vaporized=""/>
    <tripinfo id="emergency_fire_truck_east_morning_peak.0" depart="28810.00" departLane="1354145734#1_0" departPos="9.10" departSpeed="0.00" departDelay="10.00" arrival="28867.00" arrivalLane="1148421491#1_0" arrivalPos="44.65" arrivalSpeed="7.12" duration="57.00" routeLength="283.98" waitingTime="25.00" waitingCount="1" stopTime="0.00" timeLoss="40.10" rerouteNo="1" devices="tripinfo_emergency_fire_truck_east_morning_peak.0 routing_emergency_fire_truck_east_morning_peak.0" vType="fire_truck" speedFactor="1.00" vaporized=""/>
    <tripinfo id="from_west_left_turn_morning_peak.0" depart="28801.00" departLane="263812623#1_0" departPos="2.30" departSpeed="0.00" departDelay="1.00" arrival="28870.00" arrivalLane="328349209#9_0" arrivalPos="20.69" arrivalSpeed="24.75" duration="69.00" routeLength="677.53" waitingTime="8.00" waitingCount="1" stopTime="0.00" timeLoss="25.90" rerouteNo="1" devices="tripinfo_from_west_left_turn_morning_peak.0 routing_from_west_left_turn_morning_peak.0" vType="motorcycle" speedFactor="0.93" vaporized=""/>
    <tripinfo id="from_south_left_turn_morning_peak.1" depart="28808.00" departLane="638541493#1_0" departPos="2.30" departSpeed="0.00" departDelay="0.24" arrival="28871.00" arrivalLane="638541495#2_0" arrivalPos="30.24" arrivalSpeed="8.84" duration="63.00" routeLength="503.80" waitingTime="0.00" waitingCount="0" stopTime="0.00" timeLoss="12.34" rerouteNo="1" devices="tripinfo_from_south_left_turn_morning_peak.1 routing_from_south_left_turn_morning_peak.1" vType="motorcycle" speedFactor="1.13" vaporized=""/>
    <tripinfo id="emergency_fire_truck_west_morning_peak.0" depart="28805.00" departLane="263812623#1_0" departPos="9.10" departSpeed="0.00" departDelay="5.00" arrival="28874.00" arrivalLane="328349209#9_0" arrivalPos="20.69" arrivalSpeed="27.57" duration="69.00" routeLength="670.73" waitingTime="8.00" waitingCount="1" stopTime="0.00" timeLoss="30.15" rerouteNo="1" devices="tripinfo_emergency_fire_truck_west_morning_peak.0 routing_emergency_fire_truck_west_morning_peak.0" vType="fire_truck" speedFactor="1.00" vaporized=""/>
    <tripinfo id="from_west_right_turn_morning_peak.0" depart="28802.00" departLane="263812623#1_0" departPos="2.30" departSpeed="0.00" departDelay="2.00" arrival="28876.00" arrivalLane="1148421491#1_0" arrivalPos="44.65" arrivalSpeed="5.61" duration="74.00" routeLength="501.63" waitingTime="21.00" waitingCount="2" stopTime="0.00" timeLoss="34.49" rerouteNo="1" devices="tripinfo_from_west_right_turn_morning_peak.0 routing_from_west_right_turn_morning_peak.0" vType="motorcycle" speedFactor="0.96" vaporized=""/>
    <tripinfo id="from_south_right_turn_morning_peak.4" depart="28834.00" departLane="638541493#1_0" departPos="5.10" departSpeed="0.00" departDelay="2.97" arrival="28877.00" arrivalLane="638541497#1_1" arrivalPos="50.87" arrivalSpeed="18.05" duration="43.00" routeLength="159.24" waitingTime="19.00" waitingCount="1" stopTime="0.00" timeLoss="25.73" rerouteNo="1" devices="tripinfo_from_south_right_turn_morning_peak.4 routing_from_south_right_turn_morning_peak.4" vType="car" speedFactor="0.76" vaporized=""/>
    <tripinfo id="from_east_left_turn_morning_peak.1" depart="28821.00" departLane="1354145734#1_0" departPos="2.30" departSpeed="0.00" departDelay="14.63" arrival="28878.00" arrivalLane="1148421491#1_0" arrivalPos="44.65" arrivalSpeed="6.25" duration="57.00" routeLength="290.78" waitingTime="14.00" waitingCount="2" stopTime="0.00" timeLoss="41.13" rerouteNo="1" devices="tripinfo_from_east_left_turn_morning_peak.1 routing_from_east_left_turn_morning_peak.1" vType="motorcycle" speedFactor="1.07" vaporized=""/>
    <tripinfo id="7" depart="28826.00" departLane="169711262#3_0" departPos="5.10" departSpeed="0.00" departDelay="0.80" arrival="28880.00" arrivalLane="132907562#1_0" arrivalPos="14.25" arrivalSpeed="13.52" duration="54.00" routeLength="573.45" waitingTime="0.00" waitingCount="0" stopTime="0.00" timeLoss="10.20" rerouteNo="1" devices="tripinfo_7 routing_7" vType="DEFAULT_VEHTYPE" speedFactor="1.00" vaporized=""/>
    <tripinfo id="10" depart="28836.00" departLane="36257667#9_0" departPos="5.10" departSpeed="0.00" departDelay="0.00" arrival="28880.00" arrivalLane="213087089_0" arrivalPos="91.98" arrivalSpeed="13.86" duration="44.00" routeLength="437.32" waitingTime="0.00" waitingCount="0" stopTime="0.00" timeLoss="11.11" rerouteNo="1" devices="tripinfo_10 routing_10" vType="DEFAULT_VEHTYPE" speedFactor="1.04" vaporized=""/>
    <tripinfo id="from_south_left_turn_morning_peak.2" depart="28816.00" departLane="638541493#1_0" departPos="5.10" departSpeed="0.00" departDelay="0.48" arrival="28880.00" arrivalLane="638541495#2_0" arrivalPos="30.24" arrivalSpeed="7.39" duration="64.00" routeLength="501.00" waitingTime="0.00" waitingCount="0" stopTime="0.00" timeLoss="8.69" rerouteNo="1" devices="tripinfo_from_south_left_turn_morning_peak.2 routing_from_south_left_turn_morning_peak.2" vType="car" speedFactor="1.04" vaporized=""/>
    <tripinfo id="from_west_straight_morning_peak.0" depart="28800.00" departLane="263812623#1_0" departPos="2.30" departSpeed="0.00" departDelay="0.00" arrival="28881.00" arrivalLane="638541497#16_0" arrivalPos="109.58" arrivalSpeed="22.18" duration="81.00" routeLength="1048.79" waitingTime="11.00" waitingCount="1" stopTime="0.00" timeLoss="20.62" rerouteNo="1" devices="tripinfo_from_west_straight_morning_peak.0 routing_from_west_straight_morning_peak.0" vType="motorcycle" speedFactor="0.87" vaporized=""/>
    <tripinfo id="emergency_ambulance_west_morning_peak.0" depart="28804.00" departLane="263812623#1_0" departPos="5.10" departSpeed="0.00" departDelay="4.00" arrival="28881.00" arrivalLane="638541497#16_1" arrivalPos="109.58" arrivalSpeed="27.00" duration="77.00" routeLength="1045.99" waitingTime="10.00" waitingCount="1" stopTime="0.00" timeLoss="24.72" rerouteNo="1" devices="tripinfo_emergency_ambulance_west_morning_peak.0 routing_emergency_ambulance_west_morning_peak.0" vType="ambulance" speedFactor="1.00" vaporized=""/>
    <tripinfo id="from_west_straight_morning_peak.2" depart="28808.00" departLane="263812623#1_0" departPos="5.10" departSpeed="0.00" departDelay="5.62" arrival="28883.00" arrivalLane="638541497#16_1" arrivalPos="109.58" arrivalSpeed="27.40" duration="75.00" routeLength="1045.99" waitingTime="7.00" waitingCount="1" stopTime="0.00" timeLoss="23.66" rerouteNo="1" devices="tripinfo_from_west_straight_morning_peak.2 routing_from_west_straight_morning_peak.2" vType="auto" speedFactor="1.03" vaporized=""/>
    <tripinfo id="from_west_straight_morning_peak.3" depart="28810.00" departLane="263812623#1_0" departPos="2.30" departSpeed="0.00" departDelay="6.42" arrival="28884.00" arrivalLane="638541497#16_1" arrivalPos="109.58" arrivalSpeed="29.15" duration="74.00" routeLength="1048.79" waitingTime="7.00" waitingCount="1" stopTime="0.00" timeLoss="26.93" rerouteNo="1" devices="tripinfo_from_west_straight_morning_peak.3 routing_from_west_straight_morning_peak.3" vType="motorcycle" speedFactor="1.11" vaporized=""/>
    <tripinfo id="from_east_right_turn_morning_peak.3" depart="28847.00" departLane="1354145734#1_0" departPos="2.30" departSpeed="0.00" departDelay="27.89" arrival="28884.00" arrivalLane="328349209#9_1" arrivalPos="20.69" arrivalSpeed="25.97" duration="37.00" routeLength="366.20" waitingTime="0.00" waitingCount="0" stopTime="0.00" timeLoss="23.26" rerouteNo="1" devices="tripinfo_from_east_right_turn_morning_peak.3 routing_from_east_right_turn_morning_peak.3" vType="motorcycle" speedFactor="1.02" vaporized=""/>
    <tripinfo id="from_south_right_turn_morning_peak.5" depart="28843.00" departLane="638541493#1_0" departPos="12.10" departSpeed="0.00" departDelay="4.21" arrival="28884.00" arrivalLane="638541497#1_1" arrivalPos="50.87" arrivalSpeed="13.83" duration="41.00" routeLength="152.24" waitingTime="14.00" waitingCount="1" stopTime="0.00" timeLoss="28.98" rerouteNo="1" devices="tripinfo_from_south_right_turn_morning_peak.5 routing_from_south_right_turn_morning_peak.5" vType="bus" speedFactor="1.00" vaporized=""/>
    <tripinfo id="from_south_right_turn_morning_peak.6" depart="28849.00" departLane="638541493#1_0" departPos="2.30" departSpeed="0.00" departDelay="2.45" arrival="28886.00" arrivalLane="638541497#1_1" arrivalPos="50.87" arrivalSpeed="18.57" duration="37.00" routeLength="162.04" waitingTime="12.00" waitingCount="1" stopTime="0.00" timeLoss="26.38" rerouteNo="1" devices="tripinfo_from_south_right_turn_morning_peak.6 routing_from_south_right_turn_morning_peak.6" vType="motorcycle" speedFactor="1.24" vaporized=""/>
    <tripinfo id="from_west_straight_morning_peak.1" depart="28807.00" departLane="263812623#1_0" departPos="5.10" departSpeed="0.00" departDelay="5.81" arrival="28888.00" arrivalLane="638541497#16_0" arrivalPos="109.58" arrivalSpeed="24.31" duration="81.00" routeLength="1045.99" waitingTime="6.00" waitingCount="1" stopTime="0.00" timeLoss="21.09" rerouteNo="1" devices="tripinfo_from_west_straight_morning_peak.1 routing_from_west_straight_morning_peak.1" vType="auto" speedFactor="0.88" vaporized=""/>
    <tripinfo id="from_south_right_turn_morning_peak.7" depart="28858.00" departLane="638541493#1_0" departPos="5.10" departSpeed="0.00" departDelay="3.69" arrival="28888.00" arrivalLane="638541497#1_1" arrivalPos="50.87" arrivalSpeed="18.17" duration="30.00" routeLength="159.24" waitingTime="6.00" waitingCount="1" stopTime="0.00" timeLoss="18.92" rerouteNo="1" devices="tripinfo_from_south_right_turn_morning_peak.7 routing_from_south_right_turn_morning_peak.7" vType="car" speedFactor="1.16" vaporized=""/>
    <tripinfo id="from_west_straight_morning_peak.5" depart="28813.00" departLane="263812623#1_0" departPos="5.10" departSpeed="0.00" departDelay="7.04" arrival="28889.00" arrivalLane="638541497#16_1" arrivalPos="109.58" arrivalSpeed="24.04" duration="76.00" routeLength="1045.99" waitingTime="2.00" waitingCount="2" stopTime="0.00" timeLoss="17.71" rerouteNo="1" devices="tripinfo_from_west_straight_morning_peak.5 routing_from_west_straight_morning_peak.5" vType="auto" speedFactor="0.90" vaporized=""/>
    <tripinfo id="from_south_straight_morning_peak.1" depart="28835.00" departLane="638541493#1_0" departPos="5.10" departSpeed="0.00" departDelay="0.05" arrival="28889.00" arrivalLane="328349209#9_0" arrivalPos="20.69" arrivalSpeed="28.52" duration="54.00" routeLength="342.64" waitingTime="18.00" waitingCount="2" stopTime="0.00" timeLoss="35.18" rerouteNo="1" devices="tripinfo_from_south_straight_morning_peak.1 routing_from_south_straight_morning_peak.1" vType="auto" speedFactor="1.04" vaporized=""/>
    <tripinfo id="from_south_right_turn_morning_peak.8" depart="28865.00" departLane="638541493#1_0" departPos="2.30" departSpeed="0.00" departDelay="2.94" arrival="28889.00" arrivalLane="638541497#1_1" arrivalPos="50.87" arrivalSpeed="22.68" duration="24.00" routeLength="162.04" waitingTime="0.00" waitingCount="0" stopTime="0.00" timeLoss="10.46" rerouteNo="1" devices="tripinfo_from_south_right_turn_morning_peak.8 routing_from_south_right_turn_morning_peak.8" vType="motorcycle" speedFactor="0.94" vaporized=""/>
    <tripinfo id="from_south_left_turn_morning_peak.3" depart="28824.00" departLane="638541493#1_0" departPos="12.10" departSpeed="0.00" departDelay="0.73" arrival="28890.00" arrivalLane="638541495#2_0" arrivalPos="30.24" arrivalSpeed="7.84" duration="66.00" routeLength="494.00" waitingTime="0.00" waitingCount="0" stopTime="0.00" timeLoss="10.36" rerouteNo="1" devices="tripinfo_from_south_left_turn_morning_peak.3 routing_from_south_left_turn_morning_peak.3" vType="bus" speedFactor="1.00" vaporized=""/>
    <tripinfo id="from_west_straight_morning_peak.4" depart="28811.00" departLane="263812623#1_0" departPos="5.10" departSpeed="0.00" departDelay="6.23" arrival="28893.00" arrivalLane="638541497#16_0" arrivalPos="109.58" arrivalSpeed="20.23" duration="82.00" routeLength="1045.99" waitingTime="0.00" waitingCount="0" stopTime="0.00" timeLoss="14.06" rerouteNo="1" devices="tripinfo_from_west_straight_morning_peak.4 routing_from_west_straight_morning_peak.4" vType="car" speedFactor="0.77" vaporized=""/>
    <tripinfo id="from_south_right_turn_morning_peak.9" depart="28875.00" departLane="638541493#1_0" departPos="2.30" departSpeed="0.00" departDelay="5.18" arrival="28896.00" arrivalLane="638541497#1_1" arrivalPos="50.87" arrivalSpeed="28.13" duration="21.00" routeLength="162.04" waitingTime="0.00" waitingCount="0" stopTime="0.00" timeLoss="8.28" rerouteNo="1" devices="tripinfo_from_south_right_turn_morning_peak.9 routing_from_south_right_turn_morning_peak.9" vType="motorcycle" speedFactor="1.07" vaporized=""/>
    <tripinfo id="2" depart="28808.00" departLane="26284129#7_0" departPos="5.10" departSpeed="0.00" departDelay="0.80" arrival="28897.00" arrivalLane="213042766#5_0" arrivalPos="50.03" arrivalSpeed="10.94" duration="89.00" routeLength="1012.11" waitingTime="0.00" waitingCount="0" stopTime="0.00" timeLoss="15.89" rerouteNo="1" devices="tripinfo_2 routing_2" vType="DEFAULT_VEHTYPE" speedFactor="0.88" vaporized=""/>
    <tripinfo id="from_south_right_turn_morning_peak.10" depart="28879.00" departLane="638541493#1_0" departPos="2.30" departSpeed="0.00" departDelay="1.42" arrival="28897.00" arrivalLane="638541497#1_1" arrivalPos="50.87" arrivalSpeed="26.53" duration="18.00" routeLength="162.04" waitingTime="0.00" waitingCount="0" stopTime="0.00" timeLoss="7.15" rerouteNo="1" devices="tripinfo_from_south_right_turn_morning_peak.10 routing_from_south_right_turn_morning_peak.10" vType="motorcycle" speedFactor="1.19" vaporized=""/>
    <tripinfo id="11" depart="28840.00" departLane="-484510040#17_0" departPos="5.10" departSpeed="0.00" departDelay="0.40" arrival="28898.00" arrivalLane="-169711276#0_0" arrivalPos="9.15" arrivalSpeed="11.35" duration="58.00" routeLength="610.46" waitingTime="0.00" waitingCount="0" stopTime="0.00" timeLoss="21.27" rerouteNo="1" devices="tripinfo_11 routing_11" vType="DEFAULT_VEHTYPE" speedFactor="1.04" vaporized=""/>
    <tripinfo id="from_east_straight_morning_peak.0" depart="28800.00" departLane="1354145734#1_0" departPos="5.10" departSpeed="0.00" departDelay="0.00" arrival="28900.00" arrivalLane="638541495#1_1" arrivalPos="26.02" arrivalSpeed="8.87" duration="100.00" routeLength="627.14" waitingTime="33.00" waitingCount="1" stopTime="0.00" timeLoss="47.51" rerouteNo="1" devices="tripinfo_from_east_straight_morning_peak.0 routing_from_east_straight_morning_peak.0" vType="car" speedFactor="1.16" vaporized=""/>
    <tripinfo id="from_south_straight_morning_peak.2" depart="28870.00" departLane="638541493#1_0" departPos="2.30" departSpeed="0.00" departDelay="0.10" arrival="28902.00" arrivalLane="328349209#9_0" arrivalPos="20.69" arrivalSpeed="25.83" duration="32.00" routeLength="345.44" waitingTime="0.00" waitingCount="0" stopTime="0.00" timeLoss="10.93" rerouteNo="1" devices="tripinfo_from_south_straight_morning_peak.2 routing_from_south_straight_morning_peak.2" vType="motorcycle" speedFactor="0.94" vaporized=""/>
    <tripinfo id="from_south_right_turn_morning_peak.11" depart="28889.00" departLane="638541493#1_0" departPos="5.10" departSpeed="0.00" departDelay="3.66" arrival="28906.00" arrivalLane="638541497#1_1" arrivalPos="50.87" arrivalSpeed="20.03" duration="17.00" routeLength="159.24" waitingTime="0.00" waitingCount="0" stopTime="0.00" timeLoss="4.86" rerouteNo="1" devices="tripinfo_from_south_right_turn_morning_peak.11 routing_from_south_right_turn_morning_peak.11" vType="auto" speedFactor="1.05" vaporized=""/>
    <tripinfo id="1" depart="28804.00" departLane="-26284183#2_0" departPos="5.10" departSpeed="0.00" departDelay="0.40" arrival="28909.00" arrivalLane="-26284129#7_0" arrivalPos="40.68" arrivalSpeed="20.04" duration="105.00" routeLength="563.24" waitingTime="54.00" waitingCount="1" stopTime="0.00" timeLoss="77.36" rerouteNo="1" devices="tripinfo_1 routing_1" vType="DEFAULT_VEHTYPE" speedFactor="1.15" vaporized=""/>
    <tripinfo id="emergency_ambulance_east_morning_peak.0" depart="28806.00" departLane="1354145734#1_0" departPos="5.10" departSpeed="0.00" departDelay="6.00" arrival="28909.00" arrivalLane="638541495#1_1" arrivalPos="26.02" arrivalSpeed="7.15" duration="103.00" routeLength="627.14" waitingTime="23.00" waitingCount="1" stopTime="0.00" timeLoss="42.47" rerouteNo="1" devices="tripinfo_emergency_ambulance_east_morning_peak.0 routing_emergency_ambulance_east_morning_peak.0" vType="ambulance" speedFactor="1.00" vaporized=""/>
    <tripinfo id="30" depart="28908.00" departLane="-37110889#1_0" departPos="5.10" departSpeed="0.00" departDelay="0.00" arrival="28911.00" arrivalLane="-37110889#1_0" arrivalPos="11.84" arrivalSpeed="5.37" duration="3.00" routeLength="6.74" waitingTime="0.00" waitingCount="0" stopTime="0.00" timeLoss="2.52" rerouteNo="1" devices="tripinfo_30 routing_30" vType="DEFAULT_VEHTYPE" speedFactor="0.97" vaporized=""/>
    <tripinfo id="from_east_straight_morning_peak.1" depart="28813.00" departLane="1354145734#1_0" departPos="7.20" departSpeed="0.00" departDelay="11.64" arrival="28912.00" arrivalLane="638541495#1_0" arrivalPos="26.02" arrivalSpeed="7.95" duration="99.00" routeLength="625.04" waitingTime="15.00" waitingCount="1" stopTime="0.00" timeLoss="44.70" rerouteNo="1" devices="tripinfo_from_east_straight_morning_peak.1 routing_from_east_straight_morning_peak.1" vType="truck" speedFactor="1.11" vaporized=""/>
    <tripinfo id="from_south_left_turn_morning_peak.4" depart="28832.00" departLane="638541493#1_0" departPos="2.30" departSpeed="0.00" departDelay="0.97" arrival="28915.00" arrivalLane="638541495#2_0" arrivalPos="30.24" arrivalSpeed="5.10" duration="83.00" routeLength="503.80" waitingTime="0.00" waitingCount="0" stopTime="0.00" timeLoss="17.67" rerouteNo="1" devices="tripinfo_from_south_left_turn_morning_peak.4 routing_from_south_left_turn_morning_peak.4" vType="motorcycle" speedFactor="0.87" vaporized=""/>
    <tripinfo id="from_south_left_turn_morning_peak.5" depart="28839.00" departLane="638541493#1_0" departPos="5.10" departSpeed="0.00" departDelay="0.21" arrival="28917.00" arrivalLane="638541495#2_0" arrivalPos="30.24" arrivalSpeed="6.99" duration="78.00" routeLength="501.00" waitingTime="0.00" waitingCount="0" stopTime="0.00" timeLoss="12.81" rerouteNo="1" devices="tripinfo_from_south_left_turn_morning_peak.5 routing_from_south_left_turn_morning_peak.5" vType="car" speedFactor="0.87" vaporized=""/>
    <tripinfo id="from_east_straight_morning_peak.2" depart="28816.00" departLane="1354145734#1_0" departPos="2.30" departSpeed="0.00" departDelay="13.27" arrival="28918.00" arrivalLane="638541495#1_0" arrivalPos="26.02" arrivalSpeed="8.87" duration="102.00" routeLength="629.94" waitingTime="12.00" waitingCount="1" stopTime="0.00" timeLoss="45.26" rerouteNo="1" devices="tripinfo_from_east_straight_morning_peak.2 routing_from_east_straight_morning_peak.2" vType="motorcycle" speedFactor="1.07" vaporized=""/>
    <tripinfo id="12" depart="28844.00" departLane="638541497#8_0" departPos="5.10" departSpeed="0.00" departDelay="0.80" arrival="28918.00" arrivalLane="-553250634#1_0" arrivalPos="19.11" arrivalSpeed="7.96" duration="74.00" routeLength="630.48" waitingTime="23.00" waitingCount="1" stopTime="0.00" timeLoss="46.72" rerouteNo="1" devices="tripinfo_12 routing_12" vType="DEFAULT_VEHTYPE" speedFactor="0.97" vaporized=""/>
    <tripinfo id="from_east_straight_morning_peak.5" depart="28820.00" departLane="1354145734#1_0" departPos="2.30" departSpeed="0.00" departDelay="13.18" arrival="28918.00" arrivalLane="638541495#1_1" arrivalPos="26.02" arrivalSpeed="7.08" duration="98.00" routeLength="629.94" waitingTime="15.00" waitingCount="1" stopTime="0.00" timeLoss="40.29" rerouteNo="1" devices="tripinfo_from_east_straight_morning_peak.5 routing_from_east_straight_morning_peak.5" vType="motorcycle" speedFactor="1.04" vaporized=""/>
    <tripinfo id="from_east_left_turn_morning_peak.3" depart="28845.00" departLane="1354145734#1_0" departPos="2.30" departSpeed="0.00" departDelay="25.89" arrival="28924.00" arrivalLane="1148421491#1_0" arrivalPos="44.65" arrivalSpeed="7.86" duration="79.00" routeLength="290.78" waitingTime="41.00" waitingCount="3" stopTime="0.00" timeLoss="63.55" rerouteNo="1" devices="tripinfo_from_east_left_turn_morning_peak.3 routing_from_east_left_turn_morning_peak.3" vType="motorcycle" speedFactor="1.11" vaporized=""/>
    <tripinfo id="9" depart="28833.00" departLane="36853688#1_0" departPos="5.10" departSpeed="0.00" departDelay="0.60" arrival="28925.00" arrivalLane="-1093123616#1_0" arrivalPos="29.39" arrivalSpeed="16.09" duration="92.00" routeLength="947.32" waitingTime="0.00" waitingCount="0" stopTime="0.00" timeLoss="28.60" rerouteNo="1" devices="tripinfo_9 routing_9" vType="DEFAULT_VEHTYPE" speedFactor="1.21" vaporized=""/>
    <tripinfo id="from_east_straight_morning_peak.3" depart="28817.00" departLane="1354145734#1_0" departPos="2.30" departSpeed="0.00" departDelay="12.91" arrival="28925.00" arrivalLane="638541495#1_0" arrivalPos="26.02" arrivalSpeed="7.28" duration="108.00" routeLength="629.94" waitingTime="14.00" waitingCount="2" stopTime="0.00" timeLoss="46.42" rerouteNo="1" devices="tripinfo_from_east_straight_morning_peak.3 routing_from_east_straight_morning_peak.3" vType="motorcycle" speedFactor="0.98" vaporized=""/>
    <tripinfo id="from_west_left_turn_morning_peak.1" depart="28816.00" departLane="263812623#1_0" departPos="5.10" departSpeed="0.00" departDelay="10.44" arrival="28931.00" arrivalLane="328349209#9_0" arrivalPos="20.69" arrivalSpeed="27.40" duration="115.00" routeLength="674.73" waitingTime="47.00" waitingCount="2" stopTime="0.00" timeLoss="77.73" rerouteNo="1" devices="tripinfo_from_west_left_turn_morning_peak.1 routing_from_west_left_turn_morning_peak.1" vType="auto" speedFactor="1.05" vaporized=""/>